<VTKFile type="UnstructuredGrid" version="0.1">
	<UnstructuredGrid>
		<Piece NumberOfPoints="1862" NumberOfCells="3498">
			<CellData>
				<DataArray type="Int32" Name="type" NumberOfComponents="1" Format="ascii">
0
0
0
0
0
0
0
0
0
0
0
0
0
0
0
0
1
0
0
1
0
0
0
0
0
0
0
0
0
0
0
0
0
1
0
0
0
0
0
0
0
0
0
0
0
0
0
0
0
0
1
0
0
0
0
0
0
0
0
0
0
1
0
0
0
0
0
0
0
0
0
0
0
0
0
0
0
0
0
0
0
0
0
0
0
0
0
0
0
0
0
0
0
0
0
0
0
0
0
0
0
0
0
0
0
0
0
0
0
0
0
0
0
0
0
0
0
0
0
0
0
0
0
1
0
0
0
0
0
0
0
0
0
0
0
0
0
0
0
0
0
0
0
0
0
0
0
0
0
0
0
1
0
1
1
0
0
0
0
0
0
0
0
0
0
0
0
0
1
0
1
0
0
0
0
1
0
0
0
0
0
0
0
0
1
1
0
0
0
0
0
1
0
0
0
0
0
0
0
0
1
0
0
0
0
0
0
0
0
0
0
0
0
0
0
0
0
0
0
0
0
0
0
0
0
0
0
0
0
0
0
0
0
1
0
0
0
0
0
0
0
0
0
0
0
0
0
0
0
0
0
0
0
0
0
0
0
0
0
0
0
0
0
0
0
0
0
0
0
0
0
0
0
0
0
0
0
0
0
0
0
1
0
0
0
0
0
0
0
0
0
0
0
0
0
0
0
0
0
0
0
0
0
0
0
0
0
0
0
0
0
0
0
0
0
0
0
0
0
0
0
0
0
0
0
0
0
0
0
0
0
0
1
0
0
0
0
0
0
0
0
0
0
0
0
0
0
0
0
0
0
0
0
0
0
0
0
0
0
0
0
0
0
0
0
0
0
0
0
0
0
0
0
0
0
0
0
0
0
0
0
0
0
0
0
0
0
0
0
0
1
0
0
0
0
0
0
0
0
0
0
0
0
0
0
0
0
0
0
0
0
0
0
0
0
0
0
0
0
0
0
0
0
0
0
0
0
0
0
0
0
0
0
0
0
0
0
0
0
0
0
0
0
0
0
0
0
0
0
0
0
0
0
0
0
0
0
0
0
0
0
0
0
0
0
0
0
0
0
0
0
0
0
0
0
0
0
0
0
0
0
0
0
0
0
0
0
0
0
0
0
0
0
0
0
0
0
0
0
0
0
0
0
0
0
0
0
0
0
0
0
0
0
0
0
0
0
0
0
0
0
0
0
1
0
0
0
0
0
0
0
0
0
0
0
0
0
0
0
0
0
0
0
1
0
0
0
0
0
0
0
0
0
0
0
0
0
0
0
0
0
0
0
0
0
0
0
0
0
0
0
0
0
0
0
0
0
0
0
0
0
0
0
0
0
0
0
0
0
0
0
0
0
0
0
0
0
1
0
0
0
0
0
0
0
0
0
0
0
0
0
0
0
0
0
0
0
0
0
0
0
1
0
0
0
0
0
0
0
0
0
0
0
0
0
0
0
0
0
0
0
1
0
0
0
1
0
0
0
0
0
0
0
0
0
0
0
0
0
0
0
0
0
0
0
0
0
0
0
0
0
1
0
0
0
0
0
0
0
1
0
0
0
0
0
0
0
0
0
0
0
0
0
0
0
0
0
0
0
0
0
0
0
0
0
0
1
0
0
0
0
0
0
0
1
0
0
0
0
0
0
1
0
0
0
0
0
0
0
0
0
0
0
0
0
0
0
0
0
0
0
0
0
0
0
0
0
0
0
0
0
0
0
0
0
0
0
0
0
0
1
0
0
0
0
0
1
0
0
0
0
0
0
0
1
0
0
0
0
0
0
0
0
0
0
0
0
0
1
0
0
0
0
0
0
0
0
0
0
0
0
0
0
0
0
0
0
0
0
0
0
0
0
0
0
0
0
0
0
0
0
0
0
0
0
0
0
0
0
0
0
0
0
0
0
0
0
0
0
0
0
0
1
0
0
0
0
0
0
0
0
0
0
0
0
0
0
0
0
0
0
0
1
0
0
0
0
0
0
0
0
0
1
0
0
0
0
0
0
0
0
0
0
0
0
0
0
0
0
0
0
0
0
0
0
0
0
0
0
0
0
0
1
0
1
0
0
0
0
0
0
0
0
0
0
0
0
0
0
0
0
0
0
0
0
0
0
0
0
0
0
0
1
0
0
0
1
0
0
0
0
0
0
0
0
0
0
0
0
0
0
0
0
0
0
0
0
0
0
0
0
0
0
0
0
1
0
0
0
0
0
0
0
0
0
0
0
0
0
0
0
0
0
0
0
0
0
0
0
0
0
1
0
0
0
0
0
0
0
0
0
0
0
0
0
0
0
0
0
0
0
0
0
0
0
1
0
0
0
0
0
0
1
0
0
0
0
0
0
0
0
0
0
0
1
0
0
0
0
0
0
0
0
0
0
0
0
0
0
0
0
0
0
0
0
1
0
0
0
0
0
0
0
0
0
0
0
1
0
0
0
0
0
0
0
0
0
0
0
0
0
0
0
0
0
0
0
0
0
1
0
0
0
0
0
0
0
0
0
1
1
0
1
0
1
0
0
0
0
0
0
0
0
0
0
0
1
0
0
0
0
0
1
1
0
0
0
0
0
0
1
0
0
0
0
0
1
1
1
0
0
0
0
0
0
0
0
0
0
0
0
1
1
0
0
1
0
0
0
0
0
1
0
0
0
1
0
1
0
0
0
0
0
0
0
1
0
0
0
0
0
0
0
1
0
0
1
0
0
0
0
0
0
0
0
0
0
0
0
0
0
0
1
0
0
0
0
0
0
0
0
0
0
0
0
0
0
0
0
0
0
0
0
0
0
0
0
0
0
0
0
0
0
0
0
0
0
0
0
1
0
0
0
0
0
0
1
0
0
0
1
0
0
0
0
0
0
0
0
0
0
0
1
0
0
0
0
0
0
0
0
0
0
0
0
0
0
0
0
0
0
0
0
0
0
0
0
0
0
0
0
0
0
0
0
0
0
0
0
0
0
0
0
1
1
0
0
0
0
0
0
0
0
0
0
0
0
0
1
0
0
0
0
0
0
0
0
0
0
0
0
0
0
0
0
0
0
0
0
0
0
0
0
0
0
0
0
0
0
0
0
0
0
0
0
0
0
0
0
0
0
0
0
0
0
0
0
0
0
0
0
0
0
0
0
0
0
0
0
0
0
0
0
0
0
0
0
0
0
0
0
1
1
0
0
0
0
0
0
0
0
1
0
0
0
0
0
0
0
0
0
0
0
0
0
0
0
0
0
0
0
0
0
0
0
1
0
0
0
0
0
0
0
0
0
0
0
0
0
0
0
0
1
0
0
0
0
0
0
0
0
0
0
0
0
0
0
0
0
0
0
0
0
0
0
0
0
0
0
0
0
0
0
0
0
0
0
0
0
0
0
0
0
0
0
0
0
0
0
0
0
0
0
0
0
0
0
0
0
0
0
0
0
0
0
0
0
0
0
0
0
0
0
0
0
0
0
0
0
0
0
0
0
0
0
0
0
0
0
0
0
0
0
1
1
0
0
0
0
0
1
0
0
0
0
0
0
0
0
0
0
0
0
1
0
0
0
0
0
0
0
0
0
0
0
0
0
0
0
0
0
0
0
0
0
0
0
0
0
0
0
0
0
0
0
0
0
0
0
0
0
0
0
0
0
0
0
0
0
0
0
0
0
0
0
0
0
1
0
1
0
0
0
0
0
0
0
0
0
0
0
0
0
0
0
0
0
0
1
0
0
0
0
0
0
0
0
0
0
0
0
0
0
0
0
0
0
0
0
0
0
0
0
0
0
0
0
0
0
0
0
0
0
0
0
0
0
0
0
0
0
0
0
0
0
0
0
0
0
0
0
0
0
0
0
0
0
0
0
0
0
0
0
0
0
0
0
0
0
1
0
0
0
0
0
0
0
0
0
0
1
0
0
0
0
0
0
0
0
0
0
0
0
0
0
0
0
0
0
0
0
0
0
0
0
0
0
0
0
0
0
0
0
0
0
0
0
0
1
0
0
0
0
0
0
0
0
0
0
0
0
0
0
0
0
0
0
0
0
0
0
0
0
0
0
0
0
0
0
0
0
0
0
0
0
0
0
0
0
0
0
0
0
0
0
0
0
0
0
0
0
0
0
0
0
0
0
0
0
0
0
0
0
0
0
0
0
0
0
0
0
0
0
0
0
0
0
0
0
0
1
0
0
0
0
0
0
0
0
0
0
0
0
0
0
0
0
0
0
0
0
0
0
0
0
0
0
0
0
0
0
0
0
0
0
0
0
0
0
0
0
0
0
0
0
0
0
0
0
0
0
0
0
0
0
0
0
0
0
0
0
0
0
0
0
0
0
0
0
0
0
0
0
0
0
0
0
0
0
0
0
0
0
0
0
0
0
0
0
0
0
0
0
0
0
0
0
0
0
0
0
0
0
0
0
0
0
0
0
0
0
0
0
0
0
0
0
0
0
0
0
0
0
0
1
0
0
0
0
0
0
0
0
0
0
0
0
0
0
0
0
0
0
0
0
0
0
0
0
0
0
0
0
0
0
0
0
0
0
0
0
0
0
0
0
0
0
0
0
0
0
0
0
0
0
0
0
0
0
0
0
0
0
0
0
0
0
0
0
0
0
0
0
0
0
0
0
0
0
0
0
0
0
0
0
0
1
0
0
0
0
0
0
0
1
0
0
0
0
0
0
0
0
0
0
0
0
0
0
0
0
0
0
0
0
0
0
0
0
0
0
0
0
0
0
0
0
0
0
0
0
0
1
0
0
0
0
0
0
0
0
0
0
0
0
0
0
0
0
0
0
0
0
0
1
0
0
0
0
0
0
0
0
0
0
0
0
1
1
0
0
0
0
0
0
0
0
0
0
0
0
0
0
0
1
1
0
1
0
0
0
0
0
0
0
0
0
1
0
0
0
0
0
0
1
0
0
0
0
0
0
0
0
0
0
1
0
0
0
0
1
0
1
0
0
0
0
0
0
0
1
0
0
0
1
0
0
0
1
0
1
1
0
0
1
1
0
0
0
1
0
0
0
1
0
0
0
0
0
0
0
0
0
1
0
0
0
0
0
0
1
0
0
0
0
0
0
0
0
0
0
0
0
0
0
0
0
0
0
0
0
0
0
0
0
0
0
0
1
0
0
1
0
0
0
0
0
0
0
0
0
0
0
0
0
0
0
0
0
0
1
0
0
1
0
0
0
0
0
0
0
0
0
0
0
1
0
0
1
0
0
0
0
0
0
0
0
0
0
0
1
1
0
0
0
0
0
0
0
0
0
0
0
0
1
0
0
0
0
0
0
0
0
0
0
0
0
0
0
0
0
0
1
0
0
0
0
0
0
0
0
0
0
0
0
0
0
0
0
0
1
0
0
0
0
0
0
0
0
0
0
0
0
0
0
0
0
0
0
0
0
0
0
0
0
0
0
0
0
0
0
0
0
0
0
0
0
0
0
0
0
1
0
0
0
0
0
0
0
0
0
0
0
0
0
0
0
0
0
0
0
0
0
0
0
0
0
0
0
0
0
0
0
0
0
0
0
0
0
0
0
0
0
0
0
0
0
1
0
0
0
0
0
0
0
0
0
0
0
0
0
0
0
0
0
0
0
0
0
0
0
0
0
0
0
0
0
0
0
0
0
0
0
0
0
0
0
0
0
0
0
0
0
0
0
1
0
0
0
0
0
0
0
0
0
0
1
0
0
0
0
0
0
0
0
0
0
0
0
0
0
0
1
0
0
1
0
0
0
0
0
0
0
0
0
0
0
0
0
0
0
0
0
0
0
0
0
0
0
1
0
0
0
0
0
0
0
0
0
0
0
0
0
0
0
0
0
0
0
0
0
0
0
0
0
0
0
0
0
0
0
0
0
0
0
1
0
0
0
0
0
0
0
0
0
0
0
0
0
0
0
0
0
0
0
0
0
0
0
0
0
0
0
0
0
0
0
0
0
0
0
0
0
0
0
0
0
0
0
0
0
0
0
0
0
0
0
0
0
0
0
0
0
0
0
0
0
0
0
0
0
0
0
0
0
0
0
0
0
0
0
0
1
0
0
0
0
0
0
0
0
0
0
0
0
0
0
0
0
0
0
0
0
0
0
0
0
0
0
0
0
0
0
0
0
0
0
0
0
0
0
0
1
0
0
0
0
0
0
0
0
0
0
0
0
1
1
0
0
0
0
0
0
0
0
0
0
0
0
0
0
0
0
0
0
0
0
0
0
0
0
0
0
0
0
0
0
0
0
0
0
0
0
0
0
0
0
0
0
0
0
0
0
0
0
0
0
0
0
0
0
0
0
0
0
0
0
0
0
0
0
0
0
0
0
0
0
0
0
0
0
0
0
0
0
0
0
0
0
0
0
0
0
0
0
0
0
0
0
0
0
0
0
0
0
0
0
0
1
0
1
0
0
0
0
0
0
0
1
1
1
1
0
0
0
0
0
0
0
0
0
0
0
0
0
0
0
0
0
0
0
0
0
0
0
0
0
0
0
0
1
1
0
0
0
0
0
0
0
0
0
0
0
0
0
0
0
0
0
0
1
0
0
0
0
0
0
0
1
1
0
1
1
0
0
1
0
0
0
0
0
0
0
1
0
1
0
0
0
0
0
0
0
0
0
0
0
0
0
0
0
0
0
0
0
0
0
0
0
0
0
0
0
1
1
0
0
0
1
1
0
0
0
0
1
0
0
1
0
1
0
0
0
0
0
1
0
0
0
1
0
0
0
0
0
0
0
0
0
0
0
0
0
0
0
0
0
0
0
0
0
0
0
0
0
0
0
1
0
0
0
0
0
0
1
0
0
0
0
0
0
0
0
0
0
0
0
0
0
0
0
0
0
0
0
0
0
0
0
0
0
0
0
0
1
0
1
0
0
0
0
0
0
0
1
0
0
0
0
0
0
0
0
0
0
0
1
0
0
0
0
0
0
0
0
0
1
0
0
0
0
0
0
0
1
0
0
0
0
0
0
0
1
0
0
0
0
0
0
0
0
0
0
0
0
0
0
0
0
0
0
0
1
0
1
0
0
0
0
0
1
0
0
0
0
0
0
0
0
0
0
0
0
0
0
0
0
0
0
0
0
0
0
0
0
0
1
0
1
0
0
0
0
0
0
0
0
0
1
0
0
0
0
0
1
0
0
0
0
0
0
0
0
0
0
0
0
0
0
0
1
0
0
0
0
0
0
0
0
1
0
0
0
0
0
0
0
0
0
0
0
0
0
0
0
0
0
0
0
0
0
0
0
0
0
0
0
0
0
0
1
0
0
0
0
0
0
0
0
0
0
0
0
0
0
0
0
1
0
0
0
0
0
0
0
0
1
0
0
0
0
0
0
0
0
0
1
0
0
0
0
0
1
0
0
0
0
0
0
0
0
0
0
0
0
0
0
0
0
0
0
0
1
0
0
0
0
0
0
1
0
0
0
0
0
0
0
0
1
0
0
0
0
0
0
0
0
0
0
0
0
0
0
1
0
0
1
0
0
0
1
0
0
0
0
0
0
0
0
0
0
0
0
0
0
0
0
1
0
0
0
0
0
0
0
0
0
0
1
0
1
0
0
0
0
0
0
1
0
0
0
0
0
0
0
0
0
0
0
0
0
0
0
0
0
0
0
0
0
0
0
0
0
0
0
1
1
0
0
0
0
0
0
1
0
0
0
0
0
0
0
0
0
0
0
0
0
1
0
0
0
0
0
0
0
1
0
0
0
0
0
0
0
0
0
0
0
0
0
0
0
0
0
0
0
0
0
0
0
0
0
0
0
1
0
0
0
0
0
0
0
0
0
0
1
0
0
1
0
0
0
0
0
0
0
0
0
0
0
0
0
0
0
0
0
0
0
0
0
0
0
0
0
0
0
0
0
1
0
0
0
0
0
0
0
1
0
0
0
0
0
0
0
1
0
0
0
0
1
0
0
0
0
0
0
0
0
0
0
0
1
0
1
0
0
0
1
0
				</DataArray>
				<DataArray type="Float64" Name="h" NumberOfComponents="1" Format="ascii">
1.2058177774
1.2058073293
1.2073216307
1.2042115574
1.2081110647
1.2075893256
1.2059191076
1.2036981555
1.2060835560
1.2016344506
1.2036207802
1.2063463913
1.2045163173
1.2022515003
1.2043788998
1.2039031570
1.2047686398
1.2023268825
1.2059874734
1.2024143113
1.2086339824
1.2058274869
1.2079824759
1.2097165578
1.2038700218
1.2040427092
1.2079066503
1.2146294672
1.2092982072
1.2014207124
1.2015823958
1.2079067082
1.2060459090
1.2076140745
1.2141550795
1.2107901571
1.2113346776
1.2090853720
1.2143785222
1.2096860757
1.2092153247
1.2147287956
1.2077883176
1.2104606414
1.2107629335
1.2131940380
1.2089686496
1.2160034438
1.2286527259
1.2275419046
1.2103752638
1.2119634467
1.2103844741
1.2203451882
1.2136014723
1.2086373053
1.2131547158
1.2184602488
1.2198932036
1.2192857845
1.2220811416
1.2210329570
1.2276579923
1.2119741957
1.2114374091
1.2172614738
1.2263438430
1.2264709125
1.2209997097
1.2198840774
1.2197159279
1.2140511768
1.2098007171
1.2216847144
1.2206596242
1.2158485897
1.2187181776
1.2222708295
1.2169330683
1.2157381093
1.2242283150
1.2187063323
1.2318912702
1.2251665888
1.2139264930
1.2177938414
1.2253636398
1.2238225991
1.2233212580
1.2312986447
1.2261248564
1.2161334773
1.2231912930
1.2304936041
1.2197107292
1.2180691403
1.2226653115
1.2140749328
1.2156974898
1.2253847687
1.2312989023
1.2246089665
1.2214106138
1.2171771599
1.2003832951
1.2254364584
1.2202676245
1.2296229874
1.2223431388
1.2198688299
1.2295771810
1.2305412825
1.2250076169
1.2267397342
1.2227866051
1.2295730767
1.2215309240
1.2006622456
1.2288336675
1.2241398243
1.1998367917
1.2227198891
1.2180254835
1.1968771346
1.2256560387
1.2296749982
1.2229006083
1.1973531188
1.2288537231
1.2300112758
1.2281252169
1.2206801639
1.2242853506
1.2297485490
1.1994927839
1.2281180106
1.2032733661
1.2300811066
1.2266403031
1.2053884635
1.1983948903
1.1976192514
1.2286398819
1.2070080963
1.2185383379
1.2271416452
1.2041906040
1.2316721371
1.1980237477
1.2318999235
1.2023495029
1.2302175828
1.2304211285
1.2315652805
1.2255795278
1.2306016222
1.2314993706
1.1994924713
1.2316466949
1.1963864025
1.2061649925
1.2314457921
1.2034861168
1.1975038632
1.1987177614
1.2310818923
1.2086192545
1.2048803824
1.1953587787
1.2306717834
1.2312522645
1.1952103133
1.2315294904
1.1999860757
1.2091874327
1.2318355994
1.2076262213
1.2324127613
1.2319539264
1.1981322802
1.2306878484
1.2108119249
1.1968481341
1.2186955211
1.1950905821
1.1940303717
1.2103123852
1.2318372414
1.1951467561
1.1942094735
1.2124687809
1.2320410916
1.1956437088
1.2121015725
1.2318124253
1.2322064272
1.1998795764
1.2142267156
1.2138649149
1.2320053302
1.1940259758
1.2204055629
1.1941006661
1.2319863922
1.2162055002
1.1991443342
1.2053303054
1.2028980415
1.2157450245
1.2077142290
1.2118854544
1.1951435497
1.1996825729
1.1995766316
1.2042129105
1.2134518680
1.2064595664
1.2002373976
1.2104253569
1.1973321134
1.2178722298
1.2313556515
1.2090286456
1.2290951838
1.2211724006
1.2328024959
1.2326411572
1.2258888727
1.2184538167
1.2321200589
1.2322818612
1.2303508083
1.2237160248
1.2323747884
1.2329716782
1.2275329597
1.2120441536
1.2061969517
1.1976250480
1.2080104268
1.2111911215
1.2041924323
1.2009750863
1.2080962276
1.2036241890
1.2058727923
1.2003531467
1.2106152055
1.2052730059
1.2019353966
1.2070884379
1.2100185479
1.2013510019
1.2136778557
1.2125892949
1.2015182214
1.2069389152
1.2048025211
1.1995720285
1.2302111562
1.2089766074
1.2208931105
1.2260458584
1.2296310821
1.2228366754
1.2331378654
1.2334917924
1.2173231973
1.2325095480
1.2320992671
1.2334392697
1.2093176685
1.2321299546
1.2270993428
1.2288192639
1.2178503047
1.2236608993
1.2279837683
1.2310167557
1.2201910716
1.2327140154
1.2329771902
1.2329698211
1.2337236402
1.2329038510
1.2312990974
1.2251460375
1.2066900679
1.2021302528
1.2026980749
1.2065402677
1.2111842483
1.2052808866
1.2048435885
1.2078072107
1.2100361901
1.2081179653
1.2060547742
1.2034809047
1.2015133631
1.2033528263
1.2057391067
1.2099733686
1.2113295806
1.2127105277
1.2072558572
1.2091015827
1.2073146567
1.2029457224
1.2203757635
1.2273616122
1.2260781495
1.2332072772
1.2164397287
1.2341935467
1.2307399707
1.2083955409
1.2328698769
1.2342721533
1.2089809140
1.2300796634
1.2226051530
1.2327440558
1.2339226516
1.2234337112
1.2251835646
1.2282717670
1.2337172166
1.2292088217
1.2319586603
1.2334961047
1.2345142695
1.2337260638
1.2170087544
1.2315667521
1.2196574557
1.2336144183
1.2067864218
1.2366215204
1.2070832160
1.2085510093
1.2076365644
1.2037681097
1.2099303766
1.2060034823
1.2067160878
1.2057370710
1.2042141400
1.2365307033
1.2214501953
1.2098683255
1.2321805292
1.2063115371
1.2043784195
1.2373850086
1.2069118820
1.2252646676
1.2077565747
1.2072074665
1.2346702018
1.2350236358
1.2372646184
1.2033474803
1.2088784075
1.2114404867
1.2064312697
1.2144463936
1.2196911661
1.2277084452
1.2049811000
1.2305960313
1.2364604919
1.2047832117
1.2350780866
1.2311766319
1.2304238107
1.2347093475
1.2058027847
1.2348834256
1.2197637360
1.2154032446
1.2335098748
1.2340140820
1.2073209037
1.2332967349
1.2081562057
1.2221882602
1.2274863931
1.2260025937
1.2028492356
1.2345478367
1.2161489248
1.2295131593
1.2114192746
1.2352928569
1.2320302583
1.2054320306
1.2031645162
1.2028617135
1.2057481022
1.2230961253
1.2342061453
1.2041619931
1.2325037395
1.2081644374
1.2345167280
1.2342431728
1.2189273590
1.2250555189
1.2032644562
1.2284346505
1.2179026781
1.2333779083
1.2220629887
1.2065400863
1.2368281940
1.2354034084
1.2066846145
1.2337852225
1.2213945465
1.2156551897
1.2114773051
1.2062084259
1.2359360491
1.2375211302
1.2299156815
1.2360724996
1.2051550237
1.2355128014
1.2084835826
1.2247830583
1.2380302088
1.2326190433
1.2371115102
1.2281440684
1.2301719701
1.2376054717
1.2345550502
1.2361594459
1.2174319464
1.2232263561
1.2321645361
1.2064245542
1.2357383225
1.2223029187
1.2065992865
1.2246956590
1.2274674247
1.2318444842
1.2360536583
1.2332151104
1.2356779573
1.2049753463
1.2177696202
1.2074653975
1.2114783444
1.2387887080
1.2376849481
1.2289135175
1.2386284443
1.2055014170
1.2101321242
1.2058236694
1.2348574653
1.2069216898
1.2315333324
1.2275437089
1.2217186006
1.2083222861
1.2061696785
1.2354619138
1.2054113725
1.2340634953
1.2060253551
1.2145018588
1.2275146414
1.2395891264
1.2033886444
1.2061576437
1.2055061983
1.2044755837
1.2091671076
1.2060338585
1.2353151013
1.2389168313
1.2389119969
1.2348382833
1.2036863239
1.2297295078
1.2017233731
1.2261004960
1.2182064117
1.2403467026
1.2061825888
1.2054293580
1.2027276916
1.2055755953
1.2400142921
1.2329679663
1.2023939206
1.2357847408
1.2373741630
1.2027857658
1.2028608350
1.2057486129
1.2054988666
1.2248468475
1.2062791062
1.2120030879
1.2297845505
1.2036882839
1.2071936407
1.2332014763
1.2054120128
1.2191890281
1.2061518922
1.2339919102
1.2202122558
1.2061603315
1.2045657358
1.2071955056
1.2261989291
1.2247156977
1.2369950667
1.2053407483
1.2366787968
1.1988279961
1.2299832508
1.2151776656
1.2058899628
1.2348010454
1.2058229673
1.2312626543
1.2059683588
1.2061667588
1.2101446860
1.2061772805
1.2055756466
1.2062733801
1.2151782400
1.2091692271
1.2082844988
1.2023937746
1.2064132438
1.2053284217
1.2049176041
1.2030868336
1.2060268916
1.2067309829
1.2008253444
1.2387056979
1.2039167530
1.2057046112
1.2153152090
1.2061378377
1.2183071447
1.2078246830
1.1995683507
1.2370109046
1.2380893644
1.2048342251
1.1994529039
1.2376876662
1.2060321844
1.2124683222
1.2345579736
1.2054999857
1.2275458436
1.2321989845
1.2356912005
1.2044690483
1.2287873715
1.2362650845
1.2311683511
1.2213965559
1.2063277063
1.2140859095
1.2232010175
1.2332024132
1.2041121052
1.2036617832
1.2318471514
1.2357854836
1.1940737757
1.2269310735
1.2051648694
1.2361671423
1.2333802200
1.2246976137
1.1967913257
1.2360836985
1.2123989518
1.2024092128
1.2138547954
1.2024859850
1.2177718181
1.2055981246
1.2069272849
1.2400319562
1.2043927483
1.2114312252
1.2034477974
1.2393650419
1.2039186358
1.2299180455
1.2064543898
1.2117058003
1.2388800082
1.2354068049
1.1766307866
1.2107171407
1.2055910601
1.2380873398
1.1898846556
1.2232013543
1.2044518257
1.2327983467
1.2059657558
1.2044697708
1.2058916360
1.2053399242
1.2384872564
1.2214124171
1.2059551088
1.2061551960
1.2033754785
1.1830321045
1.2399730894
1.2061330275
1.2072704105
1.2117059043
1.1935208776
1.2106939914
1.2078265433
1.2045659245
1.2048354883
1.2057030684
1.2382239693
1.2405768209
1.2365152033
1.2301555936
1.2064081704
1.2124081148
1.2122468939
1.2048024522
1.2399677135
1.2370759718
1.2153155059
1.2090399804
1.2394716476
1.1819588646
1.2032730831
1.2064444517
1.2045640671
1.1721961029
1.2036851234
1.2067959954
1.2049173041
1.2369838702
1.2035828850
1.2073112897
1.2051309525
1.2348893755
1.2392003270
1.2410222346
1.2353946852
1.1699410892
1.2032518360
1.2057507286
1.2040263113
1.2409751371
1.2414323088
1.2101450843
1.2122425885
1.2107588888
1.2015952698
1.2385018054
1.2002308320
1.2064360552
1.2426513630
1.2416747908
1.2051554525
1.2062631445
1.2395694772
1.2070819098
1.2090571383
1.1927777816
1.2405663449
1.2421430088
1.2412814182
1.2042750235
1.2007963972
1.1844364878
1.1896788425
1.1982994099
1.2404337895
1.2413332168
1.2377765539
1.2392851644
1.1693561332
1.2420758569
1.2426519095
1.1786976694
1.2405759429
1.2395509630
1.1766296193
1.2432681998
1.2039164612
1.2414969175
1.1981821451
1.2001411225
1.2433873090
1.1898836911
1.2425329821
1.2420934829
1.1994512722
1.2412994564
1.1962988340
1.1936424449
1.2406459767
1.2411275968
1.2040220221
1.2066424877
1.2066413914
1.2066322318
1.2066295273
1.2057325858
1.2063502242
1.2036252036
1.2044283972
1.2082805925
1.2075945733
1.2081052416
1.2082730910
1.2060754374
1.2043855249
1.2059244117
1.2022559441
1.2044240634
1.2057280804
1.2042572099
1.2023293141
1.2042098584
1.2073173704
1.2060013376
1.2014238263
1.2036141430
1.2061898628
1.2036919504
1.2040428742
1.2038713697
1.2016323918
1.2051163717
1.2045098445
1.2087749001
1.2051549884
1.2067158922
1.2022528952
1.2015844758
1.2042519742
1.2076149532
1.2060518180
1.2079236331
1.2068540255
1.2096889439
1.2136559046
1.2047678741
1.2039034556
1.2078078042
1.2143977864
1.2061865353
1.2036118294
1.2092251247
1.2022490526
1.2024153448
1.2087724639
1.2079617024
1.2163047713
1.2058173637
1.2113485413
1.2051088547
1.2086320504
1.2067008372
1.2070108244
1.2159499588
1.2160007366
1.2051539785
1.2107663917
1.2103744612
1.2089916001
1.2146109399
1.2097132014
1.2092843679
1.2131658067
1.2125353094
1.2078930711
1.2125326558
1.2028039573
1.2136306074
1.2149302507
1.2143055951
1.2068465872
1.2104009100
1.2163083414
1.2285991445
1.2265548725
1.2069931162
1.2113481558
1.2126840578
1.2159439013
1.2107856747
1.2114615085
1.2090591999
1.2153810187
1.2141570434
1.2276474208
1.2264545377
1.2160579291
1.2113348433
1.2119797375
1.2149314104
1.2177938207
1.2185174524
1.2104375682
1.2216719409
1.2191097235
1.2140508446
1.2098203190
1.2196820413
1.2118961777
1.2114623284
1.2125327585
1.2223648467
1.2143077683
1.2147298558
1.2187134228
1.2197104989
1.2217646341
1.2206501822
1.2125087257
1.2099315651
1.2209954164
1.2130426840
1.2028027484
1.2198802585
1.2126839373
1.2153843175
1.2171413776
1.2160559359
1.2252927407
1.2168356415
1.2274674081
1.2286651723
1.2119561826
1.2265704350
1.2131767984
1.2187082818
1.2251508485
1.2175209936
1.2286140605
1.2275600257
1.2220850091
1.2210365139
1.2099051424
1.2233199389
1.2217761952
1.2198999412
1.2182144807
1.2191167874
1.2143582223
1.2105911853
1.2177986257
1.2130446701
1.2164202021
1.2136014529
1.2210420059
1.2196854676
1.2223692137
1.2086224200
1.2188104088
1.2207002038
1.2118763190
1.2203510727
1.2185233683
1.2192927359
1.2161490427
1.2184642204
1.2114342743
1.2231862945
1.2253071461
1.2171737493
1.2157125073
1.2175235550
1.2125432063
1.2168394769
1.2246052159
1.2263292901
1.2245279136
1.2240584653
1.2172559196
1.2312944684
1.2263622439
1.2155344944
1.2140998362
1.2234106091
1.2180783662
1.2176861945
1.2274873634
1.2253814411
1.2254217253
1.2171308292
1.2318433530
1.2188108773
1.2223356796
1.2305295448
1.2233244473
1.2207085287
1.2249998634
1.2164239658
1.2158374280
1.2294872991
1.2182206942
1.2222769361
1.2105722542
1.2260974493
1.2143449020
1.2295579812
1.2198718735
1.2210468549
1.2245331049
1.2318438634
1.2202368135
1.2234141191
1.2177829033
1.2227136574
1.2231463887
1.2155371377
1.2018991193
1.2176900234
1.2240702043
1.2139088128
1.2157194517
1.2253667404
1.2318926202
1.2242315565
1.2215255241
1.2169362657
1.2263497716
1.1998373091
1.2238336244
1.2125253837
1.2261004609
1.2206836400
1.2284170325
1.2017553466
1.2296685934
1.2244629732
1.2268399402
1.2233296968
1.2197055246
1.2305081413
1.2295871966
1.2313059434
1.2261288963
1.2287697161
1.2183496755
1.2256434681
1.2228882475
1.2295087267
1.2300098209
1.2214150136
1.2304977202
1.2283199183
1.2202420986
1.2018994796
1.2231564131
1.2277023478
1.1994952123
1.2281150861
1.2242735270
1.2003829817
1.2226703409
1.2185453196
1.2270101069
1.1976220848
1.2254652537
1.2017569194
1.2295886282
1.2267470461
1.2296312596
1.2026877253
1.2183526786
1.2268460297
1.2227975778
1.1980260294
1.2284408915
1.2286386373
1.1961792442
1.2295725693
1.2244714838
1.2271402303
1.2287750347
1.2202643765
1.1986653295
1.2163811859
1.2269235580
1.2307793869
1.2305001065
1.2277117098
1.2014824702
1.2293592748
1.2304451760
1.2262914833
1.2241526654
1.2283451594
1.2302160883
1.2006600853
1.2272446229
1.2288375194
1.2003156942
1.2023480552
1.2304204763
1.2255768130
1.2026920760
1.1961758865
1.2048788732
1.1987192740
1.2254795136
1.2313608644
1.1986624143
1.1970505863
1.2318874824
1.2255003037
1.2270342458
1.1968735825
1.2288547711
1.2061663439
1.1988067471
1.2180208657
1.2281270143
1.1994341357
1.2034825211
1.2279820116
1.2314457312
1.1973500850
1.2316456283
1.2262933776
1.2032793360
1.2297496814
1.2308836754
1.2248284359
1.2304481510
1.2300912248
1.2300811571
1.2315280852
1.2003593685
1.2011521060
1.2266426622
1.2003129305
1.2269457658
1.2014819143
1.2307804585
1.2163748320
1.2272461436
1.2306713998
1.2283671016
1.2293601435
1.2312507359
1.1999876443
1.2319013804
1.1968524771
1.2235888670
1.1988054560
1.1970474770
1.2310994851
1.2311647654
1.2317538409
1.2070025102
1.2316728148
1.2041924358
1.1981357756
1.2318890392
1.1994316131
1.2255140302
1.1979859058
1.1983925735
1.2306879735
1.2279832317
1.2076330869
1.2274808024
1.2053887861
1.2313612434
1.1968827702
1.1951509215
1.2306007689
1.2315006404
1.2011502706
1.2228068839
1.2308841747
1.1985021375
1.2003580161
1.2248414690
1.1950949499
1.2300904908
1.2315665505
1.1994902371
1.2283687012
1.2103258012
1.2211251278
1.2318101473
1.2086079707
1.1968790262
1.2310998419
1.2322062528
1.1979816617
1.2317552521
1.2274827609
1.2315223550
1.1953595820
1.2311652721
1.2235958293
1.1965178165
1.2320385232
1.2290076055
1.1975001183
1.2310819043
1.2121133827
1.2323395629
1.1963822379
1.2204057837
1.2318560157
1.1952060022
1.1941054336
1.2091765168
1.2319836632
1.2228129397
1.1953544932
1.1940306033
1.1984992144
1.2138731652
1.2317713352
1.2319563105
1.1994859192
1.1953552094
1.1965141692
1.1951482050
1.2323409250
1.2315227544
1.1984760685
1.2322652230
1.2108006477
1.2290092029
1.2318378937
1.2211248179
1.1957993642
1.1950074004
1.2324142345
1.1996865556
1.2157495870
1.2124606042
1.2322786952
1.2318585928
1.1942048602
1.2317739807
1.2319626295
1.2319908298
1.2186944439
1.1940255555
1.2318396432
1.2178740277
1.2003580935
1.2058711084
1.2009992876
1.2036240727
1.2142225137
1.1950026978
1.2152435168
1.1967435699
1.2080996206
1.2015233342
1.1994824754
1.2120456243
1.1956388016
1.1965953581
1.2322657977
1.1998766710
1.1984230582
1.2048002197
1.2024671743
1.2136773486
1.2069393816
1.2013552155
1.2106189912
1.1957947758
1.1976296067
1.1984718200
1.2323535370
1.2156015645
1.2162043467
1.2319656544
1.2312808387
1.2093224588
1.2319938253
1.2287958123
1.2201922256
1.2329658960
1.2327077863
1.2329256358
1.2251354729
1.2173244459
1.2321181292
1.2320087005
1.2301879423
1.2228333402
1.2325055316
1.2330489017
1.2331350677
1.2270813377
1.2118812451
1.2065392225
1.2030401551
1.1973270836
1.2081188362
1.2111830386
1.2015203318
1.2152444380
1.2009970798
1.1985271920
1.2143214104
1.2048447553
1.2021357001
1.1967388082
1.2077112274
1.2028983950
1.2053329908
1.1991390659
1.2104193271
1.2057382854
1.2029507352
1.1965906515
1.2073144861
1.2099732362
1.2002327600
1.2134501456
1.2127086462
1.2038836601
1.2003367565
1.2064604584
1.2024649101
1.2042160776
1.1984182924
1.2303735101
1.2089817937
1.2146402406
1.2196597883
1.2251781072
1.2291907330
1.2237212567
1.2330520923
1.2329729729
1.2337108117
1.2184536557
1.2323788963
1.2337107868
1.2319413950
1.2334868937
1.2090228738
1.2323570031
1.2321293843
1.2275521612
1.2291199215
1.2164406486
1.2226054909
1.2273489262
1.2307203636
1.2211729402
1.2326447000
1.2329269688
1.2332014157
1.2156039432
1.2328054993
1.2339167327
1.2328567882
1.2338404378
1.2313722272
1.2258999135
1.2067863056
1.2043829081
1.2009694837
1.1985224021
1.2037741314
1.2061990361
1.2111910162
1.2130998412
1.2057395109
1.2143236034
1.2041915914
1.2076362847
1.2099285417
1.2080093276
1.2030365809
1.2063121953
1.2043842632
1.2003318623
1.2022075014
1.2052745748
1.2100169986
1.2114381719
1.2050762176
1.2125904178
1.2038801323
1.2072072414
1.2088770543
1.2070893490
1.2019301307
1.2189284367
1.2279984157
1.2250541347
1.2329827185
1.2178502391
1.2341971417
1.2310381025
1.2081554830
1.2329158559
1.2338471870
1.2344909894
1.2345071123
1.2135056936
1.2089744890
1.2295022172
1.2236633502
1.2324914332
1.2337271028
1.2221896860
1.2260539136
1.2274799743
1.2334961747
1.2146431981
1.2345962714
1.2296515536
1.2321168239
1.2334463022
1.2347006340
1.2340050056
1.2154020291
1.2311637263
1.2208926853
1.2334993180
1.2337149461
1.2368222011
1.2247814319
1.2118378853
1.2337838934
1.2066908942
1.2043783344
1.2368057835
1.2371417109
1.2066840314
1.2230696380
1.2084813678
1.2078069119
1.2331938870
1.2359336631
1.2373439605
1.2026921495
1.2100376655
1.2131032076
1.2062115041
1.2065406335
1.2052786718
1.2179011372
1.2163900201
1.2301705169
1.2051612467
1.2290054787
1.2357985054
1.2054267975
1.2365449843
1.2227212019
1.2101293189
1.2327913800
1.2060547546
1.2034750372
1.2364819149
1.2374611739
1.2065992144
1.2262341114
1.2074637486
1.2072562983
1.2342418953
1.2353065093
1.2369860384
1.2022024109
1.2091020719
1.2113316750
1.2058905489
1.2064260967
1.2050716864
1.2155980314
1.2187512919
1.2286913129
1.2039206289
1.2313213359
1.2366157541
1.2055073925
1.2028433868
1.2353035437
1.2125019295
1.2315828664
1.2102882914
1.2352300996
1.2297244376
1.2345208326
1.2055091527
1.2044737697
1.2032483549
1.2348318349
1.2017245523
1.2058131171
1.2182051004
1.2346046825
1.2170090226
1.2044543333
1.2336256097
1.2093588996
1.2337333540
1.2069205727
1.2329615275
1.2083952084
1.2234340724
1.2282816753
1.2034881669
1.2248460029
1.2027859492
1.2348452635
1.2144987544
1.2300941220
1.2114306050
1.2354525681
1.2315269901
1.2344977590
1.2067962498
1.2058536245
1.2022538925
1.2352951967
1.2021848798
1.2059885627
1.2217180785
1.2342018640
1.2135092379
1.2043923463
1.2327584909
1.2083216381
1.2342793992
1.2340573423
1.2203748650
1.2260826130
1.2033884997
1.2275118800
1.2191898936
1.2368575885
1.2337800144
1.2359145982
1.2202113205
1.2230714691
1.2261975031
1.2303982564
1.2067158394
1.2367334310
1.2343112962
1.2355068599
1.2367268416
1.2195589062
1.2070831375
1.2342257018
1.2227930286
1.2163914177
1.2259341798
1.2123182328
1.2251562211
1.2060004321
1.2360786345
1.2373514371
1.2306961845
1.2370090597
1.2342231543
1.2347998551
1.2358684359
1.2042080885
1.2155757092
1.2358007511
1.2085531608
1.2144478763
1.2156543554
1.2387015451
1.2380857538
1.2259353578
1.2312612651
1.2382036621
1.2331958086
1.2371457934
1.2382915633
1.2054217327
1.2118426182
1.2290073107
1.2309679322
1.2375142140
1.2214526917
1.2377022251
1.2347999651
1.2355111642
1.2360332426
1.2178488427
1.2196924786
1.2239156052
1.2325390943
1.2064300817
1.2368146603
1.2354828296
1.2359360513
1.2218849225
1.2069117875
1.2350258650
1.2259081558
1.2135240254
1.2135230185
1.2279080008
1.2058857539
1.2365353326
1.2373904209
1.2324247003
1.2363062465
1.2336893731
1.2353842791
1.2039153451
1.2192809196
1.2281423209
1.2346719207
1.2077578302
1.2123198166
1.2384822065
1.2377162303
1.2277108144
1.2295692981
1.2380259245
1.2313227063
1.2366182848
1.2387178128
1.2047770572
1.2098713862
1.2262352986
1.2321825169
1.2062380066
1.2345572391
1.2380862837
1.2393628578
1.2353027696
1.2073212851
1.2044730518
1.2320404140
1.2021839164
1.2287866884
1.2285407274
1.2230961994
1.2081650724
1.2400296578
1.2060359679
1.2044710640
1.2062510032
1.2353015191
1.2027376067
1.2059285113
1.2394701036
1.2342512024
1.2026856479
1.2342584078
1.2382500940
1.2028435840
1.2031630324
1.2064389717
1.2064396971
1.2062074720
1.2161503996
1.2284404309
1.2393662154
1.2032647128
1.2077216707
1.2054125369
1.2057994053
1.2140840742
1.2275132591
1.2034605094
1.2017454138
1.2085545199
1.2036829015
1.2348886334
1.2063110973
1.2350882063
1.2388787580
1.2388769905
1.2348904764
1.2044554569
1.2304326729
1.2022525041
1.2264890070
1.2197636980
1.2077221784
1.2399650975
1.2057127232
1.2058505746
1.2062149680
1.2352375290
1.2024097528
1.2060835384
1.2398596550
1.2333061400
1.2034582036
1.2358127600
1.2374581784
1.2028492612
1.2032472189
1.2059891187
1.2027984887
1.2059086620
1.2125058761
1.2260048000
1.2395616334
1.2034881188
1.2053651315
1.2067928890
1.2037566100
1.2109111726
1.2301242376
1.2050859552
1.2026874447
1.2070262906
1.2333871789
1.2106887872
1.2060312417
1.2059285681
1.2195595642
1.2054067233
1.2343124686
1.2174326747
1.2109146352
1.2094718465
1.2208092325
1.2011107525
1.2066270671
1.2062224461
1.2380120947
1.2041229160
1.2268995222
1.2022165712
1.2070285105
1.2065761049
1.2269011522
1.2286931573
1.2251573096
1.2017735193
1.2360755537
1.2364936267
1.2191885619
1.2156001940
1.2380161230
1.2039579644
1.2047646892
1.2368590122
1.2353102422
1.2169180092
1.2007741331
1.2191879245
1.2061072660
1.2303995243
1.2305977404
1.2153394335
1.2159462532
1.2371078876
1.2107112624
1.1956037519
1.2366323009
1.2382868379
1.2187523404
1.2351650871
1.2388964852
1.2065057969
1.2005463127
1.2351662422
1.2371519751
1.2062372520
1.2121257311
1.2318367080
1.2056062394
1.2062479207
1.2364620421
1.2108244422
1.2057069604
1.2060832089
1.2171624639
1.2053598114
1.2325402705
1.2153401792
1.2299821460
1.2085572618
1.2092782568
1.2232276359
1.2023944140
1.2071032457
1.2062631979
1.2043424174
1.2010946126
1.2062089138
1.2078128217
1.2220616225
1.2289151317
1.2223037826
1.2001420213
1.2372721116
1.2366774167
1.2382083890
1.2044818510
1.2052058032
1.2357394956
1.2150061983
1.1994689052
1.2062946417
1.2279092016
1.2388929258
1.2171619956
1.2177302295
1.2089551474
1.1981833430
1.2377040304
1.2386317159
1.2049876384
1.1978260900
1.2360551269
1.2382940467
1.2063094786
1.2126446394
1.2332164696
1.2059729292
1.2062107025
1.2348046861
1.2059093248