<VTKFile type="UnstructuredGrid" version="0.1">
	<UnstructuredGrid>
		<Piece NumberOfPoints="1862" NumberOfCells="3498">
			<CellData>
				<DataArray type="Int32" Name="type" NumberOfComponents="1" Format="ascii">
0
0
0
0
0
0
0
0
0
0
0
0
0
0
0
0
1
0
0
1
0
0
0
0
0
0
0
0
0
0
0
0
0
1
0
0
0
0
0
0
0
0
0
0
0
0
0
0
0
0
1
0
0
0
0
0
0
0
0
0
0
1
0
0
0
0
0
0
0
0
0
0
0
0
0
0
0
0
0
0
0
0
0
0
0
0
0
0
0
0
0
0
0
0
0
0
0
0
0
0
0
0
0
0
0
0
0
0
0
0
0
0
0
0
0
0
0
0
0
0
0
0
0
1
0
0
0
0
0
0
0
0
0
0
0
0
0
0
0
0
0
0
0
0
0
0
0
0
0
0
0
1
0
1
1
0
0
0
0
0
0
0
0
0
0
0
0
0
1
0
1
0
0
0
0
1
0
0
0
0
0
0
0
0
1
1
0
0
0
0
0
1
0
0
0
0
0
0
0
0
1
0
0
0
0
0
0
0
0
0
0
0
0
0
0
0
0
0
0
0
0
0
0
0
0
0
0
0
0
0
0
0
0
1
0
0
0
0
0
0
0
0
0
0
0
0
0
0
0
0
0
0
0
0
0
0
0
0
0
0
0
0
0
0
0
0
0
0
0
0
0
0
0
0
0
0
0
0
0
0
0
1
0
0
0
0
0
0
0
0
0
0
0
0
0
0
0
0
0
0
0
0
0
0
0
0
0
0
0
0
0
0
0
0
0
0
0
0
0
0
0
0
0
0
0
0
0
0
0
0
0
0
1
0
0
0
0
0
0
0
0
0
0
0
0
0
0
0
0
0
0
0
0
0
0
0
0
0
0
0
0
0
0
0
0
0
0
0
0
0
0
0
0
0
0
0
0
0
0
0
0
0
0
0
0
0
0
0
0
0
1
0
0
0
0
0
0
0
0
0
0
0
0
0
0
0
0
0
0
0
0
0
0
0
0
0
0
0
0
0
0
0
0
0
0
0
0
0
0
0
0
0
0
0
0
0
0
0
0
0
0
0
0
0
0
0
0
0
0
0
0
0
0
0
0
0
0
0
0
0
0
0
0
0
0
0
0
0
0
0
0
0
0
0
0
0
0
0
0
0
0
0
0
0
0
0
0
0
0
0
0
0
0
0
0
0
0
0
0
0
0
0
0
0
0
0
0
0
0
0
0
0
0
0
0
0
0
0
0
0
0
0
0
1
0
0
0
0
0
0
0
0
0
0
0
0
0
0
0
0
0
0
0
1
0
0
0
0
0
0
0
0
0
0
0
0
0
0
0
0
0
0
0
0
0
0
0
0
0
0
0
0
0
0
0
0
0
0
0
0
0
0
0
0
0
0
0
0
0
0
0
0
0
0
0
0
0
1
0
0
0
0
0
0
0
0
0
0
0
0
0
0
0
0
0
0
0
0
0
0
0
1
0
0
0
0
0
0
0
0
0
0
0
0
0
0
0
0
0
0
0
1
0
0
0
1
0
0
0
0
0
0
0
0
0
0
0
0
0
0
0
0
0
0
0
0
0
0
0
0
0
1
0
0
0
0
0
0
0
1
0
0
0
0
0
0
0
0
0
0
0
0
0
0
0
0
0
0
0
0
0
0
0
0
0
0
1
0
0
0
0
0
0
0
1
0
0
0
0
0
0
1
0
0
0
0
0
0
0
0
0
0
0
0
0
0
0
0
0
0
0
0
0
0
0
0
0
0
0
0
0
0
0
0
0
0
0
0
0
0
1
0
0
0
0
0
1
0
0
0
0
0
0
0
1
0
0
0
0
0
0
0
0
0
0
0
0
0
1
0
0
0
0
0
0
0
0
0
0
0
0
0
0
0
0
0
0
0
0
0
0
0
0
0
0
0
0
0
0
0
0
0
0
0
0
0
0
0
0
0
0
0
0
0
0
0
0
0
0
0
0
0
1
0
0
0
0
0
0
0
0
0
0
0
0
0
0
0
0
0
0
0
1
0
0
0
0
0
0
0
0
0
1
0
0
0
0
0
0
0
0
0
0
0
0
0
0
0
0
0
0
0
0
0
0
0
0
0
0
0
0
0
1
0
1
0
0
0
0
0
0
0
0
0
0
0
0
0
0
0
0
0
0
0
0
0
0
0
0
0
0
0
1
0
0
0
1
0
0
0
0
0
0
0
0
0
0
0
0
0
0
0
0
0
0
0
0
0
0
0
0
0
0
0
0
1
0
0
0
0
0
0
0
0
0
0
0
0
0
0
0
0
0
0
0
0
0
0
0
0
0
1
0
0
0
0
0
0
0
0
0
0
0
0
0
0
0
0
0
0
0
0
0
0
0
1
0
0
0
0
0
0
1
0
0
0
0
0
0
0
0
0
0
0
1
0
0
0
0
0
0
0
0
0
0
0
0
0
0
0
0
0
0
0
0
1
0
0
0
0
0
0
0
0
0
0
0
1
0
0
0
0
0
0
0
0
0
0
0
0
0
0
0
0
0
0
0
0
0
1
0
0
0
0
0
0
0
0
0
1
1
0
1
0
1
0
0
0
0
0
0
0
0
0
0
0
1
0
0
0
0
0
1
1
0
0
0
0
0
0
1
0
0
0
0
0
1
1
1
0
0
0
0
0
0
0
0
0
0
0
0
1
1
0
0
1
0
0
0
0
0
1
0
0
0
1
0
1
0
0
0
0
0
0
0
1
0
0
0
0
0
0
0
1
0
0
1
0
0
0
0
0
0
0
0
0
0
0
0
0
0
0
1
0
0
0
0
0
0
0
0
0
0
0
0
0
0
0
0
0
0
0
0
0
0
0
0
0
0
0
0
0
0
0
0
0
0
0
0
1
0
0
0
0
0
0
1
0
0
0
1
0
0
0
0
0
0
0
0
0
0
0
1
0
0
0
0
0
0
0
0
0
0
0
0
0
0
0
0
0
0
0
0
0
0
0
0
0
0
0
0
0
0
0
0
0
0
0
0
0
0
0
0
1
1
0
0
0
0
0
0
0
0
0
0
0
0
0
1
0
0
0
0
0
0
0
0
0
0
0
0
0
0
0
0
0
0
0
0
0
0
0
0
0
0
0
0
0
0
0
0
0
0
0
0
0
0
0
0
0
0
0
0
0
0
0
0
0
0
0
0
0
0
0
0
0
0
0
0
0
0
0
0
0
0
0
0
0
0
0
0
1
1
0
0
0
0
0
0
0
0
1
0
0
0
0
0
0
0
0
0
0
0
0
0
0
0
0
0
0
0
0
0
0
0
1
0
0
0
0
0
0
0
0
0
0
0
0
0
0
0
0
1
0
0
0
0
0
0
0
0
0
0
0
0
0
0
0
0
0
0
0
0
0
0
0
0
0
0
0
0
0
0
0
0
0
0
0
0
0
0
0
0
0
0
0
0
0
0
0
0
0
0
0
0
0
0
0
0
0
0
0
0
0
0
0
0
0
0
0
0
0
0
0
0
0
0
0
0
0
0
0
0
0
0
0
0
0
0
0
0
0
0
1
1
0
0
0
0
0
1
0
0
0
0
0
0
0
0
0
0
0
0
1
0
0
0
0
0
0
0
0
0
0
0
0
0
0
0
0
0
0
0
0
0
0
0
0
0
0
0
0
0
0
0
0
0
0
0
0
0
0
0
0
0
0
0
0
0
0
0
0
0
0
0
0
0
1
0
1
0
0
0
0
0
0
0
0
0
0
0
0
0
0
0
0
0
0
1
0
0
0
0
0
0
0
0
0
0
0
0
0
0
0
0
0
0
0
0
0
0
0
0
0
0
0
0
0
0
0
0
0
0
0
0
0
0
0
0
0
0
0
0
0
0
0
0
0
0
0
0
0
0
0
0
0
0
0
0
0
0
0
0
0
0
0
0
0
0
1
0
0
0
0
0
0
0
0
0
0
1
0
0
0
0
0
0
0
0
0
0
0
0
0
0
0
0
0
0
0
0
0
0
0
0
0
0
0
0
0
0
0
0
0
0
0
0
0
1
0
0
0
0
0
0
0
0
0
0
0
0
0
0
0
0
0
0
0
0
0
0
0
0
0
0
0
0
0
0
0
0
0
0
0
0
0
0
0
0
0
0
0
0
0
0
0
0
0
0
0
0
0
0
0
0
0
0
0
0
0
0
0
0
0
0
0
0
0
0
0
0
0
0
0
0
0
0
0
0
0
1
0
0
0
0
0
0
0
0
0
0
0
0
0
0
0
0
0
0
0
0
0
0
0
0
0
0
0
0
0
0
0
0
0
0
0
0
0
0
0
0
0
0
0
0
0
0
0
0
0
0
0
0
0
0
0
0
0
0
0
0
0
0
0
0
0
0
0
0
0
0
0
0
0
0
0
0
0
0
0
0
0
0
0
0
0
0
0
0
0
0
0
0
0
0
0
0
0
0
0
0
0
0
0
0
0
0
0
0
0
0
0
0
0
0
0
0
0
0
0
0
0
0
0
1
0
0
0
0
0
0
0
0
0
0
0
0
0
0
0
0
0
0
0
0
0
0
0
0
0
0
0
0
0
0
0
0
0
0
0
0
0
0
0
0
0
0
0
0
0
0
0
0
0
0
0
0
0
0
0
0
0
0
0
0
0
0
0
0
0
0
0
0
0
0
0
0
0
0
0
0
0
0
0
0
0
1
0
0
0
0
0
0
0
1
0
0
0
0
0
0
0
0
0
0
0
0
0
0
0
0
0
0
0
0
0
0
0
0
0
0
0
0
0
0
0
0
0
0
0
0
0
1
0
0
0
0
0
0
0
0
0
0
0
0
0
0
0
0
0
0
0
0
0
1
0
0
0
0
0
0
0
0
0
0
0
0
1
1
0
0
0
0
0
0
0
0
0
0
0
0
0
0
0
1
1
0
1
0
0
0
0
0
0
0
0
0
1
0
0
0
0
0
0
1
0
0
0
0
0
0
0
0
0
0
1
0
0
0
0
1
0
1
0
0
0
0
0
0
0
1
0
0
0
1
0
0
0
1
0
1
1
0
0
1
1
0
0
0
1
0
0
0
1
0
0
0
0
0
0
0
0
0
1
0
0
0
0
0
0
1
0
0
0
0
0
0
0
0
0
0
0
0
0
0
0
0
0
0
0
0
0
0
0
0
0
0
0
1
0
0
1
0
0
0
0
0
0
0
0
0
0
0
0
0
0
0
0
0
0
1
0
0
1
0
0
0
0
0
0
0
0
0
0
0
1
0
0
1
0
0
0
0
0
0
0
0
0
0
0
1
1
0
0
0
0
0
0
0
0
0
0
0
0
1
0
0
0
0
0
0
0
0
0
0
0
0
0
0
0
0
0
1
0
0
0
0
0
0
0
0
0
0
0
0
0
0
0
0
0
1
0
0
0
0
0
0
0
0
0
0
0
0
0
0
0
0
0
0
0
0
0
0
0
0
0
0
0
0
0
0
0
0
0
0
0
0
0
0
0
0
1
0
0
0
0
0
0
0
0
0
0
0
0
0
0
0
0
0
0
0
0
0
0
0
0
0
0
0
0
0
0
0
0
0
0
0
0
0
0
0
0
0
0
0
0
0
1
0
0
0
0
0
0
0
0
0
0
0
0
0
0
0
0
0
0
0
0
0
0
0
0
0
0
0
0
0
0
0
0
0
0
0
0
0
0
0
0
0
0
0
0
0
0
0
1
0
0
0
0
0
0
0
0
0
0
1
0
0
0
0
0
0
0
0
0
0
0
0
0
0
0
1
0
0
1
0
0
0
0
0
0
0
0
0
0
0
0
0
0
0
0
0
0
0
0
0
0
0
1
0
0
0
0
0
0
0
0
0
0
0
0
0
0
0
0
0
0
0
0
0
0
0
0
0
0
0
0
0
0
0
0
0
0
0
1
0
0
0
0
0
0
0
0
0
0
0
0
0
0
0
0
0
0
0
0
0
0
0
0
0
0
0
0
0
0
0
0
0
0
0
0
0
0
0
0
0
0
0
0
0
0
0
0
0
0
0
0
0
0
0
0
0
0
0
0
0
0
0
0
0
0
0
0
0
0
0
0
0
0
0
0
1
0
0
0
0
0
0
0
0
0
0
0
0
0
0
0
0
0
0
0
0
0
0
0
0
0
0
0
0
0
0
0
0
0
0
0
0
0
0
0
1
0
0
0
0
0
0
0
0
0
0
0
0
1
1
0
0
0
0
0
0
0
0
0
0
0
0
0
0
0
0
0
0
0
0
0
0
0
0
0
0
0
0
0
0
0
0
0
0
0
0
0
0
0
0
0
0
0
0
0
0
0
0
0
0
0
0
0
0
0
0
0
0
0
0
0
0
0
0
0
0
0
0
0
0
0
0
0
0
0
0
0
0
0
0
0
0
0
0
0
0
0
0
0
0
0
0
0
0
0
0
0
0
0
0
0
1
0
1
0
0
0
0
0
0
0
1
1
1
1
0
0
0
0
0
0
0
0
0
0
0
0
0
0
0
0
0
0
0
0
0
0
0
0
0
0
0
0
1
1
0
0
0
0
0
0
0
0
0
0
0
0
0
0
0
0
0
0
1
0
0
0
0
0
0
0
1
1
0
1
1
0
0
1
0
0
0
0
0
0
0
1
0
1
0
0
0
0
0
0
0
0
0
0
0
0
0
0
0
0
0
0
0
0
0
0
0
0
0
0
0
1
1
0
0
0
1
1
0
0
0
0
1
0
0
1
0
1
0
0
0
0
0
1
0
0
0
1
0
0
0
0
0
0
0
0
0
0
0
0
0
0
0
0
0
0
0
0
0
0
0
0
0
0
0
1
0
0
0
0
0
0
1
0
0
0
0
0
0
0
0
0
0
0
0
0
0
0
0
0
0
0
0
0
0
0
0
0
0
0
0
0
1
0
1
0
0
0
0
0
0
0
1
0
0
0
0
0
0
0
0
0
0
0
1
0
0
0
0
0
0
0
0
0
1
0
0
0
0
0
0
0
1
0
0
0
0
0
0
0
1
0
0
0
0
0
0
0
0
0
0
0
0
0
0
0
0
0
0
0
1
0
1
0
0
0
0
0
1
0
0
0
0
0
0
0
0
0
0
0
0
0
0
0
0
0
0
0
0
0
0
0
0
0
1
0
1
0
0
0
0
0
0
0
0
0
1
0
0
0
0
0
1
0
0
0
0
0
0
0
0
0
0
0
0
0
0
0
1
0
0
0
0
0
0
0
0
1
0
0
0
0
0
0
0
0
0
0
0
0
0
0
0
0
0
0
0
0
0
0
0
0
0
0
0
0
0
0
1
0
0
0
0
0
0
0
0
0
0
0
0
0
0
0
0
1
0
0
0
0
0
0
0
0
1
0
0
0
0
0
0
0
0
0
1
0
0
0
0
0
1
0
0
0
0
0
0
0
0
0
0
0
0
0
0
0
0
0
0
0
1
0
0
0
0
0
0
1
0
0
0
0
0
0
0
0
1
0
0
0
0
0
0
0
0
0
0
0
0
0
0
1
0
0
1
0
0
0
1
0
0
0
0
0
0
0
0
0
0
0
0
0
0
0
0
1
0
0
0
0
0
0
0
0
0
0
1
0
1
0
0
0
0
0
0
1
0
0
0
0
0
0
0
0
0
0
0
0
0
0
0
0
0
0
0
0
0
0
0
0
0
0
0
1
1
0
0
0
0
0
0
1
0
0
0
0
0
0
0
0
0
0
0
0
0
1
0
0
0
0
0
0
0
1
0
0
0
0
0
0
0
0
0
0
0
0
0
0
0
0
0
0
0
0
0
0
0
0
0
0
0
1
0
0
0
0
0
0
0
0
0
0
1
0
0
1
0
0
0
0
0
0
0
0
0
0
0
0
0
0
0
0
0
0
0
0
0
0
0
0
0
0
0
0
0
1
0
0
0
0
0
0
0
1
0
0
0
0
0
0
0
1
0
0
0
0
1
0
0
0
0
0
0
0
0
0
0
0
1
0
1
0
0
0
1
0
				</DataArray>
				<DataArray type="Float64" Name="h" NumberOfComponents="1" Format="ascii">
1.2089940331
1.2090104098
1.2056965214
1.2091425989
1.2049277167
1.2063378224
1.2071965695
1.2106880637
1.2086238115
1.2133347683
1.2103559162
1.2069592859
1.2098589366
1.2116941341
1.2102427209
1.2115857083
1.2083899877
1.2123959308
1.2088912454
1.2108715630
1.2044778778
1.2089886574
1.2061062329
1.2036087549
1.2095407887
1.2129479057
1.2060741074
1.1978312284
1.2044348395
1.2126466343
1.2119425141
1.2059892863
1.2089980471
1.2058607952
1.1980293297
1.2024048071
1.2014498989
1.2046317884
1.1971105407
1.2031499229
1.2040970018
1.1976933098
1.2061071632
1.2029893954
1.2019986327
1.1995392481
1.2045355164
1.1964362631
1.1782128111
1.1804358444
1.2030036759
1.2011259830
1.2027914002
1.1906226796
1.1989890109
1.2043716520
1.1994462492
1.1926780463
1.1909988468
1.1918272795
1.1875278109
1.1893442932
1.1794911845
1.2008517867
1.2010335830
1.1943380228
1.1824258731
1.1817944684
1.1893043424
1.1911851020
1.1905801762
1.1987334028
1.2029521940
1.1886725390
1.1898602606
1.1936359042
1.1923014302
1.1873387280
1.1942339494
1.1953470207
1.1839295955
1.1927276809
1.1714296216
1.1838189435
1.1967356444
1.1923579751
1.1824083179
1.1854656375
1.1860476313
1.1734882251
1.1811479435
1.1936495086
1.1855148689
1.1756408173
1.1909599928
1.1924133835
1.1875056571
1.1964328025
1.1953446513
1.1822360523
1.1730259766
1.1840329912
1.1892679410
1.1946451641
1.2154481356
1.1842048261
1.1891501944
1.1763731114
1.1876022947
1.1909198023
1.1773436364
1.1751876948
1.1831428307
1.1803487639
1.1872902394
1.1745430755
1.1891572595
1.2149292006
1.1765559074
1.1851973879
1.2152769988
1.1873017143
1.1905110963
1.2174915633
1.1824265552
1.1758808690
1.1871189504
1.2179457971
1.1758917318
1.1738866765
1.1775249376
1.1891444822
1.1848934972
1.1741560039
1.2148492816
1.1778360629
1.2142684951
1.1730715727
1.1805835624
1.2098390356
1.2183924748
1.2163087285
1.1757356388
1.2072221684
1.1906019059
1.1791938629
1.2120616643
1.1694209401
1.2168188331
1.1679813472
1.2149758332
1.1725949164
1.1716249751
1.1681269829
1.1821605240
1.1717801911
1.1694387682
1.2166657461
1.1683996130
1.2202199050
1.2083659439
1.1698493698
1.2128008009
1.2185998396
1.2173763715
1.1713485876
1.2042660934
1.2109647374
1.2192353332
1.1707291175
1.1701726612
1.2204541469
1.1686693712
1.2170981832
1.2024888168
1.1670109108
1.2055402305
1.1681324739
1.1672415014
1.2188188211
1.1721097388
1.1993335999
1.2202620953
1.1887591556
1.2204202387
1.2219307810
1.2011770927
1.1675052482
1.2199384201
1.2226923811
1.1961435036
1.1672916007
1.2214458257
1.1980420702
1.1672118539
1.1692393974
1.2179038062
1.1929717384
1.1948664964
1.1667799146
1.2227243324
1.1873754156
1.2222638843
1.1671581071
1.1898400146
1.2198180891
1.2107106055
1.2149266077
1.1916761983
1.2053244337
1.1958906863
1.2215570527
1.2188433441
1.2207094498
1.2129462353
1.1926509598
1.2081494133
1.2184391515
1.1991131039
1.2207059749
1.1885415631
1.1744858550
1.2022765094
1.1784555767
1.1857080384
1.1668270915
1.1705711401
1.1824915288
1.1867965357
1.1724653917
1.1670287035
1.1765125429
1.1843154666
1.1665474495
1.1676460923
1.1803913929
1.1939243728
1.2089271221
1.2214869716
1.2031860419
1.1934666708
1.2135138656
1.2186989125
1.2035188154
1.2137419916
1.2092403022
1.2193081595
1.1971626960
1.2113859317
1.2171822163
1.2061724978
1.1967621799
1.2176750052
1.1907317645
1.1902165451
1.2196567639
1.2064841506
1.2116462501
1.2207107747
1.1768577079
1.2000247926
1.1838706694
1.1812607067
1.1775873161
1.1842735151
1.1678491056
1.1665521712
1.1864038112
1.1664920778
1.1737535986
1.1700729808
1.2003875351
1.1728487941
1.1807177933
1.1787771459
1.1847130927
1.1827387434
1.1794728347
1.1756852188
1.1854882469
1.1709354880
1.1662663876
1.1669080112
1.1673283537
1.1718502030
1.1748568975
1.1826669510
1.2068331579
1.2180623057
1.2173114189
1.2072654789
1.1914633584
1.2117976348
1.2122403690
1.2007907575
1.1908537004
1.2012533257
1.2094749562
1.2156672120
1.2196577522
1.2183095358
1.2099053936
1.1947253033
1.1876582177
1.1883082107
1.2039181279
1.1941728423
1.2043559904
1.2162896754
1.1819715353
1.1796389928
1.1798801016
1.1661693365
1.1841697505
1.1695236854
1.1759701775
1.1975156286
1.1721788192
1.1662123567
1.1980163212
1.1766511332
1.1825413175
1.1730046030
1.1674821647
1.1810842837
1.1812538269
1.1783675752
1.1665849765
1.1778392193
1.1740714303
1.1703815259
1.1669422827
1.1659378440
1.1825996001
1.1748422590
1.1834906860
1.1712011058
1.2050228335
1.1648172484
1.1981858473
1.1881990462
1.1987555476
1.2165589644
1.1888875780
1.2097584946
1.2044726756
1.2103627186
1.2156489707
1.1664794827
1.1762169671
1.1851435518
1.1721868242
1.2078326351
1.2146772977
1.1648191824
1.2014247589
1.1746293967
1.1914676801
1.2019752084
1.1697714730
1.1692255210
1.1637449776
1.2183098819
1.1921178595
1.1858438683
1.2072662294
1.1775093117
1.1762349940
1.1746341421
1.2166763008
1.1726032716
1.1670753856
1.2138903783
1.1658096239
1.1750660835
1.1756357480
1.1670476150
1.2062207424
1.1689296460
1.1801111295
1.1819760981
1.1714764608
1.1658006281
1.1948341744
1.1722253419
1.1954393984
1.1807510681
1.1783916927
1.1784397877
1.1905072949
1.1655536876
1.1806039786
1.1768046521
1.1796395503
1.1664937461
1.1739597264
1.2042120015
1.1976391833
1.1953154123
1.1832742967
1.1794178024
1.1697802932
1.1855497460
1.1732652929
1.1812888752
1.1661985158
1.1705179176
1.1814720786
1.1797293253
1.1880047393
1.1771604784
1.1768215130
1.1715865452
1.1754233483
1.2025458105
1.1654175679
1.1684766012
1.1961077841
1.1707223829
1.1774500494
1.1771733704
1.1784753029
1.2081714313
1.1677718276
1.1640856673
1.1745709239
1.1652416177
1.2147895051
1.1684643795
1.1863711220
1.1755221199
1.1636254354
1.1713174587
1.1658220347
1.1737073915
1.1735097810
1.1657691569
1.1699986217
1.1660091111
1.1773280284
1.1750893091
1.1714699116
1.2054861354
1.1683285173
1.1758714054
1.1993961362
1.1767482724
1.1739593579
1.1731420770
1.1677635057
1.1706018030
1.1648856158
1.2166760616
1.1779735023
1.1894864466
1.1784757840
1.1625125853
1.1651715264
1.1730806724
1.1635392399
1.2127836221
1.1835293045
1.1999136876
1.1653742170
1.1927695736
1.1741149934
1.1757900608
1.1790071972
1.1818899775
1.2057160947
1.1665533659
1.1934586029
1.1707451906
1.1870424493
1.1800081218
1.1770757104
1.1622847543
1.1883595631
1.2127332827
1.2048451964
1.2024073287
1.1815919832
1.2029249305
1.1657495509
1.1647958387
1.1639823767
1.1691402795
1.1999945112
1.1756931171
1.1953085294
1.1753224338
1.1795750494
1.1613954396
1.2105924797
1.2042144043
1.1929537644
1.1967329326
1.1624703467
1.1724341852
1.1992242392
1.1695832763
1.1666580896
1.1906631043
1.1953177911
1.1832754706
1.1901892707
1.1781891376
1.2147573484
1.1794488786
1.1741740965
1.1999921780
1.1841417230
1.1712591206
1.1934615312
1.1777042872
1.2127326113
1.1700738524
1.1761119727
1.2114894815
1.1928879406
1.1841431047
1.1741176373
1.1751185861
1.1640304848
1.1992521101
1.1671488540
1.1963653371
1.1727613839
1.1788682436
1.1836573988
1.1691924313
1.1999159910
1.1719099498
1.2048841354
1.2057163359
1.1842626719
1.2105916009
1.1967358016
1.2147569844
1.1788686267
1.1815927522
1.1863571512
1.1930537308
1.2134536390
1.1903762533
1.1961256714
1.2009254103
1.1870444666
1.1884540274
1.1937588257
1.1629938263
1.1919473136
1.2021894264
1.1805350751
1.2094929462
1.1789942804
1.1811719827
1.1944102876
1.1663909914
1.1641719503
1.1865206267
1.1957979342
1.1651686516
1.2029262666
1.1822998626
1.1699886857
1.1901918496
1.1757879290
1.1727493970
1.1648847673
1.1896433858
1.1740331077
1.1681899268
1.1726895656
1.1774471141
1.2089875955
1.1784667144
1.1766187208
1.1712586710
1.1848013905
1.1936935053
1.1731368896
1.1695828046
1.1924751109
1.1754926337
1.2021865696
1.1660066806
1.1715779322
1.1767456557
1.1924281872
1.1652411513
1.1859316315
1.1928544117
1.1826518894
1.1950165970
1.1779711857
1.1822739797
1.2110800018
1.1617890481
1.1860415229
1.1802338266
1.1876368789
1.1629811485
1.1966776636
1.1745680941
1.1951858338
1.1905541060
1.1644116618
1.1684673465
1.1795131800
1.1928578023
1.2046392343
1.1658203435
1.1883741723
1.1766188021
1.1995242986
1.1728187416
1.2048852436
1.1896456524
1.1836590045
1.1992544012
1.1628038285
1.1775861347
1.2068894299
1.2114895001
1.1906448897
1.1849035481
1.1636642891
1.2094929282
1.1981444847
1.1905545522
1.1919147371
1.1980345938
1.1811730247
1.1928903673
1.1865226295
1.2021912560
1.1669334832
1.1623620200
1.1695285308
1.1742396580
1.2134538818
1.1937294210
1.1879272228
1.1837505861
1.1616138263
1.1673679936
1.1805353385
1.1945094624
1.1632233275
1.1864241266
1.1920051378
1.2077481220
1.2003152226
1.1805170184
1.1863389529
1.1814873439
1.1961281341
1.1687174581
1.1948563892
1.2100361347
1.2028993375
1.1712340942
1.1652179901
1.1613913533
1.1704778099
1.1753264251
1.1891330733
1.2053779631
1.1976327802
1.1613056147
1.1606520875
1.1842633887
1.1963894074
1.1872921507
1.1962360484
1.1668617981
1.1959759093
1.1982026823
1.1600325235
1.1614617543
1.1886180198
1.1913998539
1.1658593010
1.1940366317
1.1969140726
1.1929032617
1.1633549261
1.1606657278
1.1619258842
1.1943686274
1.1936759390
1.1873787973
1.1889752502
1.1940605369
1.1641383102
1.1625511076
1.1677739992
1.1659203404
1.1778773833
1.1612730688
1.1599936092
1.1815213591
1.1623630116
1.1644742776
1.1795160482
1.1597738827
1.1919490585
1.1610668633
1.1935518252
1.1935185944
1.1599772642
1.1883763792
1.1604854642
1.1602978380
1.1958005725
1.1608156440
1.1939289340
1.1927372444
1.1620393830
1.1609380105
1.2023514941
1.2075319447
1.2071648689
1.2071796189
1.2075491650
1.2081459552
1.2069547074
1.2103483573
1.2098361720
1.2056101455
1.2063298133
1.2049369407
1.2056246395
1.2086338272
1.2102311604
1.2071872893
1.2123224761
1.2098469331
1.2081528844
1.2113447392
1.2123892082
1.2091498236
1.2057023067
1.2088747281
1.2126410141
1.2117094406
1.2071131873
1.2106977862
1.2129467293
1.2095355772
1.2133410164
1.2105612387
1.2098726324
1.2047744537
1.2101127711
1.2075109792
1.2123296856
1.2119377306
1.2113558195
1.2058593051
1.2089836703
1.2059655300
1.2073616974
1.2031446339
1.1980963194
1.2083926882
1.2115928900
1.2060876460
1.1970861808
1.2071163738
1.2117162362
1.2040794384
1.2117003445
1.2108754071
1.2047789821
1.2061301383
1.1954124486
1.2090018157
1.2017958264
1.2105733907
1.2044804229
1.2075332291
1.2076972586
1.1960328726
1.1964351784
1.2101217890
1.2019902364
1.2030022218
1.2045075475
1.1978524038
1.2036162142
1.2044564620
1.1994240069
1.1996907770
1.2060952070
1.1996800403
1.2133854590
1.1981159709
1.1975264529
1.1981085127
1.2073777180
1.2027648625
1.1954126094
1.1786324955
1.1814652742
1.2077156337
1.2017997115
1.2002237337
1.1960474653
1.2024172642
1.2010055407
1.2046554628
1.1964524793
1.1980312873
1.1795071535
1.1818083517
1.1960822172
1.2014520084
1.2008388576
1.1975319775
1.1936566438
1.1925562367
1.2030159089
1.1886784664
1.1921853124
1.1987280323
1.2029278736
1.1910134020
1.1997738789
1.2011662253
1.1996835597
1.1876207251
1.1981099244
1.1977053493
1.1923031248
1.1905831755
1.1883657404
1.1898645519
1.1997137759
1.2029213621
1.1893066871
1.1997836032
1.2133913140
1.1911856472
1.2002295755
1.1964541640
1.1942193697
1.1960936713
1.1836894831
1.1952234446
1.1807434902
1.1781957772
1.2011450248
1.1814519729
1.1995633443
1.1927226070
1.1838298351
1.1942887099
1.1786138516
1.1804198293
1.1875254696
1.1893437029
1.2029447184
1.1858237412
1.1883576825
1.1909961027
1.1932910232
1.1921829183
1.1949432285
1.2012360584
1.1936556486
1.1997850098
1.1956017060
1.1989969120
1.1893335169
1.1910118024
1.1876195701
1.2043924039
1.1926355253
1.1894779309
1.1997967860
1.1906194906
1.1925540229
1.1918238769
1.1936362244
1.1926769872
1.2011899386
1.1855192605
1.1836790903
1.1946447454
1.1953239815
1.1942894544
1.1980680213
1.1952232680
1.1840349735
1.1825255244
1.1841468779
1.1856836273
1.1943524009
1.1730350989
1.1824137507
1.1962385079
1.1964160236
1.1857242068
1.1924007181
1.1940940149
1.1807266518
1.1822403877
1.1842123005
1.1942352426
1.1710037194
1.1926382283
1.1876074503
1.1752043095
1.1858210366
1.1894733300
1.1831492889
1.1956020531
1.1936495110
1.1777617911
1.1932890782
1.1873344120
1.2012576624
1.1806753248
1.1949563291
1.1773636845
1.1909132859
1.1893303685
1.1841420612
1.1710017406
1.1908429548
1.1857228027
1.1923692512
1.1873005845
1.1863955545
1.1962392591
1.2149169797
1.1940928611
1.1856786158
1.1967531400
1.1953641541
1.1824049425
1.1714262689
1.1839267150
1.1891565598
1.1942333543
1.1825138559
1.2152746355
1.1854605159
1.1980861942
1.1806697019
1.1891384285
1.1793975434
1.2146729529
1.1758933054
1.1838051651
1.1798695273
1.1860392766
1.1909664240
1.1756210177
1.1745194253
1.1734763820
1.1811406303
1.1770808527
1.1928350833
1.1824376817
1.1871249103
1.1777395063
1.1738893250
1.1892695656
1.1735321657
1.1797668410
1.1908425644
1.2149189253
1.1863847160
1.1790452462
1.2148466398
1.1778423581
1.1849066194
1.2154501072
1.1875061284
1.1905926971
1.1810364265
1.2163069571
1.1828736457
1.2146734319
1.1745155558
1.1803367556
1.1763583180
1.2137501284
1.1928350996
1.1798610379
1.1872862219
1.2168177673
1.1793801952
1.1757385673
1.2181976726
1.1745407367
1.1837972780
1.1791985254
1.1770707855
1.1891563232
1.2162534642
1.1918478653
1.1815618895
1.1715228804
1.1735271648
1.1790308092
1.2160783553
1.1741876563
1.1740491436
1.1806129852
1.1851853231
1.1797489318
1.1725979080
1.2149318560
1.1790713447
1.1765481110
1.2140981028
1.2149777567
1.1716262284
1.1821629171
1.2137519247
1.2181985779
1.2109628684
1.2173761941
1.1828616027
1.1692218752
1.2162548106
1.2183412326
1.1682934842
1.1833316032
1.1810255646
1.2174929289
1.1758892328
1.2083580707
1.2165832691
1.1905210361
1.1775201637
1.2141956380
1.2128012763
1.1772997115
1.1698485081
1.2179463983
1.1683998347
1.1806096626
1.2142700402
1.1741531159
1.1708244659
1.1838218033
1.1740418924
1.1729846854
1.1730701140
1.1686710035
1.2132747776
1.2161666677
1.1805806055
1.2141014611
1.1815512303
1.2160760455
1.1715206441
1.1918579649
1.1790676341
1.1707288243
1.1772369198
1.1741855770
1.1701752043
1.2170995554
1.1679815244
1.2202620913
1.1857768157
1.2165845631
1.2183412821
1.1718303195
1.1696767118
1.1680757729
1.2072355171
1.1694220107
1.2120628519
1.2188196014
1.1682948398
1.2141986815
1.1833269926
1.2197206367
1.2183923335
1.1721098591
1.1772966882
1.2055272778
1.1787388216
1.2098464443
1.1692216983
1.2195886271
1.2199380050
1.1717799281
1.1694370639
1.2161635218
1.1858860768
1.1708240761
1.2154894730
1.2132778455
1.1838182823
1.2204195097
1.1729833307
1.1681244279
1.2166645855
1.1772336930
1.2011580416
1.1874394040
1.1672140062
1.2042839054
1.2195886664
1.1718292147
1.1692373602
1.2197200745
1.1680746711
1.1787356968
1.1698841988
1.2207941253
1.1696761292
1.1857806461
1.2191548846
1.1672939292
1.1754893161
1.2185990638
1.1713482868
1.1980254396
1.1678773624
1.2202199929
1.1873676071
1.1669180687
1.2204547604
1.2222633335
1.2025047542
1.1671594089
1.1858914570
1.2192361321
1.2227235704
1.2154914877
1.1948541215
1.1670291864
1.1672393629
1.2182307796
1.2207944226
1.2191551390
1.2215564867
1.1678792753
1.1698862406
1.2194531991
1.1695983220
1.1993492403
1.1754859936
1.1670085699
1.1874466819
1.2220783232
1.2222931556
1.1681355275
1.2188444171
1.1916673489
1.1961562871
1.1670287610
1.1669160802
1.2226932409
1.1670275784
1.1673516724
1.1667798423
1.1887678250
1.2219312414
1.1675037071
1.1885357424
1.2193083006
1.2092384882
1.2170735108
1.2137457742
1.1929807433
1.2222940857
1.1894667322
1.2210151926
1.2035077687
1.2167922616
1.2182289032
1.1939158228
1.2214463930
1.2216972971
1.1696006302
1.2179022733
1.2209840125
1.2116480725
1.2157871932
1.1907268464
1.2064771770
1.2176768234
1.1971511605
1.2220794434
1.2214856502
1.2194527884
1.1671623249
1.1876408275
1.1898456038
1.1673511840
1.1748814236
1.2003748712
1.1667785814
1.1787938682
1.1854833885
1.1669054120
1.1709423224
1.1689251075
1.1826641069
1.1864033204
1.1728659537
1.1667792561
1.1768819622
1.1842666707
1.1664914270
1.1692279270
1.1678452270
1.1807241953
1.1959024924
1.2072636654
1.2154381287
1.2207064468
1.2012446177
1.1914588902
1.2167895484
1.1894716723
1.2170711771
1.2202889610
1.1870980117
1.2122445987
1.2180630377
1.2210156309
1.2053357728
1.2149237056
1.2107117480
1.2198182631
1.1991273933
1.2099073349
1.2162923156
1.2216984616
1.2043500171
1.1947177883
1.2184379537
1.1926593495
1.1883072043
1.2143498074
1.2200541256
1.2081559489
1.2157839336
1.2129447866
1.2209852753
1.1764893414
1.1980071412
1.1853364139
1.1834914529
1.1812493922
1.1778505167
1.1843220415
1.1692290374
1.1676496136
1.1665821256
1.1867998710
1.1665466590
1.1685307502
1.1740967876
1.1703923572
1.2022908034
1.1671634559
1.1724519319
1.1803824959
1.1784378757
1.1841741201
1.1825378641
1.1796398326
1.1759916180
1.1857150171
1.1705667806
1.1689271169
1.1661680623
1.1876420677
1.1668287371
1.1674790879
1.1721995760
1.1687825074
1.1744644726
1.1824912789
1.2050208753
1.2138367351
1.2186986152
1.2202891740
1.2165602124
1.2089279819
1.1934741669
1.1846803912
1.2103660627
1.1870984818
1.2135098390
1.1987494043
1.1888857574
1.2031949319
1.2154344953
1.2078337338
1.2146802304
1.2200552610
1.2188440742
1.2113834587
1.1967720503
1.1858445212
1.2126330823
1.1902206591
1.2143455666
1.2019704818
1.1921136407
1.2061778031
1.2171801597
1.1814767267
1.1794682227
1.1797279142
1.1662665639
1.1847107544
1.1697932729
1.1756621953
1.1954335192
1.1718325364
1.1687810385
1.1680723901
1.1661964532
1.1830700983
1.2000353168
1.1768104604
1.1827442205
1.1732864119
1.1673317147
1.1807526721
1.1812640666
1.1783910674
1.1665546637
1.1853338997
1.1682761619
1.1775724883
1.1737293990
1.1700651691
1.1670463595
1.1657997527
1.1819811596
1.1750810962
1.1838728961
1.1714965881
1.1685308767
1.1654203148
1.1755241643
1.1823975633
1.1707274798
1.2068341144
1.2138328216
1.1646826580
1.1657384557
1.1961037074
1.1755080157
1.1863698000
1.2007970958
1.1712247880
1.1677776194
1.1642401608
1.2173106473
1.1908576803
1.1846789341
1.2081730081
1.2025436791
1.2117937396
1.1768224081
1.1770489624
1.1735125359
1.2147907895
1.1737447902
1.1683066654
1.2119489846
1.1663808215
1.1765024293
1.1835290510
1.1721122594
1.2094728825
1.2156646819
1.1643378211
1.1648044896
1.1993925630
1.1747122444
1.1894838792
1.2039222905
1.1699141266
1.1690561453
1.1640326546
1.2188448839
1.1941789256
1.1876593512
1.2105973622
1.2054859475
1.2126291431
1.1776938145
1.1762160425
1.1747609147
1.2173370112
1.1725731105
1.1669299046
1.2127858638
1.1890541419
1.1657487243
1.1810365566
1.1748236099
1.1816811945
1.1675581362
1.1756964297
1.1669440021
1.2048431578
1.2032042746
1.1970105435
1.1691523345
1.1953061564
1.1856291601
1.1795796069
1.1682719154
1.1825941102
1.1838921158
1.1711820841
1.1798972267
1.1659384494
1.1927659386
1.1724485114
1.1975225976
1.1810850478
1.1783663476
1.1899483590
1.1781910503
1.1906611184
1.1653742166
1.1800107780
1.1766413859
1.1802331986
1.1665541412
1.1741239470
1.1680699902
1.2072503631
1.2055122740
1.1969337741
1.1677180670
1.1949209046
1.1838439026
1.1790109945
1.1695131231
1.1830674823
1.1860400067
1.1729820320
1.1818890449
1.1662142069
1.1707609074
1.1819683652
1.1798825817
1.1883578047
1.1770766387
1.1771007940
1.1668945271
1.1714151914
1.1669926429
1.1761119101
1.1755073415
1.1741180011
1.1724416762
1.2044741101
1.1654209088
1.1697754582
1.1682937130
1.1654234102
1.1771553068
1.1981900922
1.1705811516
1.1778465776
1.1770492166
1.1757484914
1.1784681828
1.1747282531
1.2097560391
1.1676153432
1.1642381006
1.1745764140
1.1663938794
1.1705873050
1.1691947820
1.1653436554
1.2156480030
1.1789105183
1.1683019299
1.1882012960
1.1775092637
1.1771732540
1.1629964172
1.1641745798
1.1757458290
1.1719111789
1.1634728468
1.1712215947
1.1657347248
1.1644151900
1.2119459656
1.1823972320
1.1737430312
1.1735286770
1.1640876094
1.1762159086
1.1655605735
1.1698003315
1.1684680240
1.1659859666
1.1769318672
1.1762345422
1.1749260267
1.1711614531
1.2072654999
1.1646809040
1.1686129860
1.1671155918
1.1763316154
1.2014280196
1.1692193322
1.1770275226
1.1781307786
1.1781302717
1.1736147601
1.2105948885
1.1664748176
1.1648164424
1.1730400390
1.1675729851
1.1704289253
1.1651070712
1.2173374187
1.1784350891
1.1737085839
1.1697673547
1.1914712867
1.1784687562
1.1628065458
1.1650730355
1.1746322934
1.1729574016
1.1631274979
1.1725703513
1.1669254775
1.1635595918
1.2138880676
1.1851442000
1.1747104774
1.1721832591
1.2019091479
1.1655538795
1.1658216168
1.1629832356
1.1677122500
1.1948385016
1.2024095304
1.1739474024
1.1949232527
1.1740331692
1.1759298571
1.1794144947
1.1812897473
1.1617912419
1.2097652377
1.2032065549
1.2074356511
1.1664935633
1.1919138109
1.1954882650
1.1632251033
1.1705014967
1.1989574634
1.1705709163
1.1652296279
1.1890561551
1.1976415448
1.1817044135
1.1817055169
1.1888338878
1.1805995167
1.1771593436
1.1623763405
1.1880065886
1.1835489866
1.2137106460
1.2062224596
1.1784677775
1.1749282021
1.2010400369
1.1970943877
1.1828992575
1.2016666677
1.1697458783
1.2048118350
1.1658100440
1.1644132052
1.1637896771
1.1689186642
1.2018205215
1.1756301585
1.1969362380
1.1747881368
1.1801060041
1.1835499825
1.1616163208
1.2118332673
1.2055143683
1.2082677489
1.1675539307
1.1928522169
1.1987774824
1.1623318538
1.1722082451
1.2010424699
1.1689752037
1.1663025079
1.1905094466
1.1970129657
1.1838451323
1.1917709448
1.1921350278
1.1810362507
1.1784388232
1.1619267617
1.1899501859
1.2155390364
1.2072521645
1.1994708195
1.1804759599
1.1735573602
1.2040581101
1.1989549761
1.1857143606
1.1707728502
1.1825357589
1.2097639098
1.1954912449
1.1771555495
1.2137099426
1.1697738637
1.1773282763
1.1804763772
1.1895546674
1.1758576742
1.1935215519
1.2103818003
1.1929690374
1.1641824372
1.1910400456
1.1739945014
1.1999349324
1.1857161525
1.1865322472
1.1739939644
1.1747579269
1.1747282370
1.1935905504
1.1676216621
1.1643361604
1.1777040921
1.1776937949
1.1641795532
1.1905582193
1.1972757028
1.1668921177
1.1690496307
1.1793277462
1.1981349631
1.1771017914
1.2073124739
1.1724410416
1.1726014441
1.1782960270
1.1807457828
1.1658251085
1.1791284330
1.1921349282
1.1648156091
1.1645458383
1.1762157192
1.1690035800
1.1628613027
1.1824501280
1.1960293021
1.1690006994
1.1662284965
1.2019111068
1.1849701826
1.1717638050
1.2030615346
1.2074351530
1.1670707092
1.1853271269
1.2118319246
1.1987801914
1.1786858232
1.2155391883
1.1711603258
1.1782964561
1.1727618049
1.1829002409
1.1875142337
1.1750892435
1.1933973333
1.2125433889
1.1913985061
1.1941810452
1.1989039369
1.1888363455
1.1896057422
1.1754239234
1.1730800344
1.1758715366
1.1935164243
1.1637424930
1.1671507663
1.1634701806
1.1927001553
1.2002512931
1.1683264623
1.1811973227
1.1972940840
1.2081141562
1.1736144643
1.1628637998
1.1786855354
1.1794745895
1.1802485320
1.1935493611
1.1655580086
1.1635366965
1.1850493380
1.1946454694
1.1677607442
1.1644125525
1.2048126136
1.1831925097
1.1706000507
1.2056828090
1.2082671554
1.1697888016
1.1921379009