<VTKFile type="UnstructuredGrid" version="0.1">
	<UnstructuredGrid>
		<Piece NumberOfPoints="1862" NumberOfCells="3498">
			<CellData>
				<DataArray type="Int32" Name="type" NumberOfComponents="1" Format="ascii">
0
0
0
0
0
0
0
0
0
0
0
0
0
0
0
0
1
0
0
1
0
0
0
0
0
0
0
0
0
0
0
0
0
1
0
0
0
0
0
0
0
0
0
0
0
0
0
0
0
0
1
0
0
0
0
0
0
0
0
0
0
1
0
0
0
0
0
0
0
0
0
0
0
0
0
0
0
0
0
0
0
0
0
0
0
0
0
0
0
0
0
0
0
0
0
0
0
0
0
0
0
0
0
0
0
0
0
0
0
0
0
0
0
0
0
0
0
0
0
0
0
0
0
1
0
0
0
0
0
0
0
0
0
0
0
0
0
0
0
0
0
0
0
0
0
0
0
0
0
0
0
1
0
1
1
0
0
0
0
0
0
0
0
0
0
0
0
0
1
0
1
0
0
0
0
1
0
0
0
0
0
0
0
0
1
1
0
0
0
0
0
1
0
0
0
0
0
0
0
0
1
0
0
0
0
0
0
0
0
0
0
0
0
0
0
0
0
0
0
0
0
0
0
0
0
0
0
0
0
0
0
0
0
1
0
0
0
0
0
0
0
0
0
0
0
0
0
0
0
0
0
0
0
0
0
0
0
0
0
0
0
0
0
0
0
0
0
0
0
0
0
0
0
0
0
0
0
0
0
0
0
1
0
0
0
0
0
0
0
0
0
0
0
0
0
0
0
0
0
0
0
0
0
0
0
0
0
0
0
0
0
0
0
0
0
0
0
0
0
0
0
0
0
0
0
0
0
0
0
0
0
0
1
0
0
0
0
0
0
0
0
0
0
0
0
0
0
0
0
0
0
0
0
0
0
0
0
0
0
0
0
0
0
0
0
0
0
0
0
0
0
0
0
0
0
0
0
0
0
0
0
0
0
0
0
0
0
0
0
0
1
0
0
0
0
0
0
0
0
0
0
0
0
0
0
0
0
0
0
0
0
0
0
0
0
0
0
0
0
0
0
0
0
0
0
0
0
0
0
0
0
0
0
0
0
0
0
0
0
0
0
0
0
0
0
0
0
0
0
0
0
0
0
0
0
0
0
0
0
0
0
0
0
0
0
0
0
0
0
0
0
0
0
0
0
0
0
0
0
0
0
0
0
0
0
0
0
0
0
0
0
0
0
0
0
0
0
0
0
0
0
0
0
0
0
0
0
0
0
0
0
0
0
0
0
0
0
0
0
0
0
0
0
1
0
0
0
0
0
0
0
0
0
0
0
0
0
0
0
0
0
0
0
1
0
0
0
0
0
0
0
0
0
0
0
0
0
0
0
0
0
0
0
0
0
0
0
0
0
0
0
0
0
0
0
0
0
0
0
0
0
0
0
0
0
0
0
0
0
0
0
0
0
0
0
0
0
1
0
0
0
0
0
0
0
0
0
0
0
0
0
0
0
0
0
0
0
0
0
0
0
1
0
0
0
0
0
0
0
0
0
0
0
0
0
0
0
0
0
0
0
1
0
0
0
1
0
0
0
0
0
0
0
0
0
0
0
0
0
0
0
0
0
0
0
0
0
0
0
0
0
1
0
0
0
0
0
0
0
1
0
0
0
0
0
0
0
0
0
0
0
0
0
0
0
0
0
0
0
0
0
0
0
0
0
0
1
0
0
0
0
0
0
0
1
0
0
0
0
0
0
1
0
0
0
0
0
0
0
0
0
0
0
0
0
0
0
0
0
0
0
0
0
0
0
0
0
0
0
0
0
0
0
0
0
0
0
0
0
0
1
0
0
0
0
0
1
0
0
0
0
0
0
0
1
0
0
0
0
0
0
0
0
0
0
0
0
0
1
0
0
0
0
0
0
0
0
0
0
0
0
0
0
0
0
0
0
0
0
0
0
0
0
0
0
0
0
0
0
0
0
0
0
0
0
0
0
0
0
0
0
0
0
0
0
0
0
0
0
0
0
0
1
0
0
0
0
0
0
0
0
0
0
0
0
0
0
0
0
0
0
0
1
0
0
0
0
0
0
0
0
0
1
0
0
0
0
0
0
0
0
0
0
0
0
0
0
0
0
0
0
0
0
0
0
0
0
0
0
0
0
0
1
0
1
0
0
0
0
0
0
0
0
0
0
0
0
0
0
0
0
0
0
0
0
0
0
0
0
0
0
0
1
0
0
0
1
0
0
0
0
0
0
0
0
0
0
0
0
0
0
0
0
0
0
0
0
0
0
0
0
0
0
0
0
1
0
0
0
0
0
0
0
0
0
0
0
0
0
0
0
0
0
0
0
0
0
0
0
0
0
1
0
0
0
0
0
0
0
0
0
0
0
0
0
0
0
0
0
0
0
0
0
0
0
1
0
0
0
0
0
0
1
0
0
0
0
0
0
0
0
0
0
0
1
0
0
0
0
0
0
0
0
0
0
0
0
0
0
0
0
0
0
0
0
1
0
0
0
0
0
0
0
0
0
0
0
1
0
0
0
0
0
0
0
0
0
0
0
0
0
0
0
0
0
0
0
0
0
1
0
0
0
0
0
0
0
0
0
1
1
0
1
0
1
0
0
0
0
0
0
0
0
0
0
0
1
0
0
0
0
0
1
1
0
0
0
0
0
0
1
0
0
0
0
0
1
1
1
0
0
0
0
0
0
0
0
0
0
0
0
1
1
0
0
1
0
0
0
0
0
1
0
0
0
1
0
1
0
0
0
0
0
0
0
1
0
0
0
0
0
0
0
1
0
0
1
0
0
0
0
0
0
0
0
0
0
0
0
0
0
0
1
0
0
0
0
0
0
0
0
0
0
0
0
0
0
0
0
0
0
0
0
0
0
0
0
0
0
0
0
0
0
0
0
0
0
0
0
1
0
0
0
0
0
0
1
0
0
0
1
0
0
0
0
0
0
0
0
0
0
0
1
0
0
0
0
0
0
0
0
0
0
0
0
0
0
0
0
0
0
0
0
0
0
0
0
0
0
0
0
0
0
0
0
0
0
0
0
0
0
0
0
1
1
0
0
0
0
0
0
0
0
0
0
0
0
0
1
0
0
0
0
0
0
0
0
0
0
0
0
0
0
0
0
0
0
0
0
0
0
0
0
0
0
0
0
0
0
0
0
0
0
0
0
0
0
0
0
0
0
0
0
0
0
0
0
0
0
0
0
0
0
0
0
0
0
0
0
0
0
0
0
0
0
0
0
0
0
0
0
1
1
0
0
0
0
0
0
0
0
1
0
0
0
0
0
0
0
0
0
0
0
0
0
0
0
0
0
0
0
0
0
0
0
1
0
0
0
0
0
0
0
0
0
0
0
0
0
0
0
0
1
0
0
0
0
0
0
0
0
0
0
0
0
0
0
0
0
0
0
0
0
0
0
0
0
0
0
0
0
0
0
0
0
0
0
0
0
0
0
0
0
0
0
0
0
0
0
0
0
0
0
0
0
0
0
0
0
0
0
0
0
0
0
0
0
0
0
0
0
0
0
0
0
0
0
0
0
0
0
0
0
0
0
0
0
0
0
0
0
0
0
1
1
0
0
0
0
0
1
0
0
0
0
0
0
0
0
0
0
0
0
1
0
0
0
0
0
0
0
0
0
0
0
0
0
0
0
0
0
0
0
0
0
0
0
0
0
0
0
0
0
0
0
0
0
0
0
0
0
0
0
0
0
0
0
0
0
0
0
0
0
0
0
0
0
1
0
1
0
0
0
0
0
0
0
0
0
0
0
0
0
0
0
0
0
0
1
0
0
0
0
0
0
0
0
0
0
0
0
0
0
0
0
0
0
0
0
0
0
0
0
0
0
0
0
0
0
0
0
0
0
0
0
0
0
0
0
0
0
0
0
0
0
0
0
0
0
0
0
0
0
0
0
0
0
0
0
0
0
0
0
0
0
0
0
0
0
1
0
0
0
0
0
0
0
0
0
0
1
0
0
0
0
0
0
0
0
0
0
0
0
0
0
0
0
0
0
0
0
0
0
0
0
0
0
0
0
0
0
0
0
0
0
0
0
0
1
0
0
0
0
0
0
0
0
0
0
0
0
0
0
0
0
0
0
0
0
0
0
0
0
0
0
0
0
0
0
0
0
0
0
0
0
0
0
0
0
0
0
0
0
0
0
0
0
0
0
0
0
0
0
0
0
0
0
0
0
0
0
0
0
0
0
0
0
0
0
0
0
0
0
0
0
0
0
0
0
0
1
0
0
0
0
0
0
0
0
0
0
0
0
0
0
0
0
0
0
0
0
0
0
0
0
0
0
0
0
0
0
0
0
0
0
0
0
0
0
0
0
0
0
0
0
0
0
0
0
0
0
0
0
0
0
0
0
0
0
0
0
0
0
0
0
0
0
0
0
0
0
0
0
0
0
0
0
0
0
0
0
0
0
0
0
0
0
0
0
0
0
0
0
0
0
0
0
0
0
0
0
0
0
0
0
0
0
0
0
0
0
0
0
0
0
0
0
0
0
0
0
0
0
0
1
0
0
0
0
0
0
0
0
0
0
0
0
0
0
0
0
0
0
0
0
0
0
0
0
0
0
0
0
0
0
0
0
0
0
0
0
0
0
0
0
0
0
0
0
0
0
0
0
0
0
0
0
0
0
0
0
0
0
0
0
0
0
0
0
0
0
0
0
0
0
0
0
0
0
0
0
0
0
0
0
0
1
0
0
0
0
0
0
0
1
0
0
0
0
0
0
0
0
0
0
0
0
0
0
0
0
0
0
0
0
0
0
0
0
0
0
0
0
0
0
0
0
0
0
0
0
0
1
0
0
0
0
0
0
0
0
0
0
0
0
0
0
0
0
0
0
0
0
0
1
0
0
0
0
0
0
0
0
0
0
0
0
1
1
0
0
0
0
0
0
0
0
0
0
0
0
0
0
0
1
1
0
1
0
0
0
0
0
0
0
0
0
1
0
0
0
0
0
0
1
0
0
0
0
0
0
0
0
0
0
1
0
0
0
0
1
0
1
0
0
0
0
0
0
0
1
0
0
0
1
0
0
0
1
0
1
1
0
0
1
1
0
0
0
1
0
0
0
1
0
0
0
0
0
0
0
0
0
1
0
0
0
0
0
0
1
0
0
0
0
0
0
0
0
0
0
0
0
0
0
0
0
0
0
0
0
0
0
0
0
0
0
0
1
0
0
1
0
0
0
0
0
0
0
0
0
0
0
0
0
0
0
0
0
0
1
0
0
1
0
0
0
0
0
0
0
0
0
0
0
1
0
0
1
0
0
0
0
0
0
0
0
0
0
0
1
1
0
0
0
0
0
0
0
0
0
0
0
0
1
0
0
0
0
0
0
0
0
0
0
0
0
0
0
0
0
0
1
0
0
0
0
0
0
0
0
0
0
0
0
0
0
0
0
0
1
0
0
0
0
0
0
0
0
0
0
0
0
0
0
0
0
0
0
0
0
0
0
0
0
0
0
0
0
0
0
0
0
0
0
0
0
0
0
0
0
1
0
0
0
0
0
0
0
0
0
0
0
0
0
0
0
0
0
0
0
0
0
0
0
0
0
0
0
0
0
0
0
0
0
0
0
0
0
0
0
0
0
0
0
0
0
1
0
0
0
0
0
0
0
0
0
0
0
0
0
0
0
0
0
0
0
0
0
0
0
0
0
0
0
0
0
0
0
0
0
0
0
0
0
0
0
0
0
0
0
0
0
0
0
1
0
0
0
0
0
0
0
0
0
0
1
0
0
0
0
0
0
0
0
0
0
0
0
0
0
0
1
0
0
1
0
0
0
0
0
0
0
0
0
0
0
0
0
0
0
0
0
0
0
0
0
0
0
1
0
0
0
0
0
0
0
0
0
0
0
0
0
0
0
0
0
0
0
0
0
0
0
0
0
0
0
0
0
0
0
0
0
0
0
1
0
0
0
0
0
0
0
0
0
0
0
0
0
0
0
0
0
0
0
0
0
0
0
0
0
0
0
0
0
0
0
0
0
0
0
0
0
0
0
0
0
0
0
0
0
0
0
0
0
0
0
0
0
0
0
0
0
0
0
0
0
0
0
0
0
0
0
0
0
0
0
0
0
0
0
0
1
0
0
0
0
0
0
0
0
0
0
0
0
0
0
0
0
0
0
0
0
0
0
0
0
0
0
0
0
0
0
0
0
0
0
0
0
0
0
0
1
0
0
0
0
0
0
0
0
0
0
0
0
1
1
0
0
0
0
0
0
0
0
0
0
0
0
0
0
0
0
0
0
0
0
0
0
0
0
0
0
0
0
0
0
0
0
0
0
0
0
0
0
0
0
0
0
0
0
0
0
0
0
0
0
0
0
0
0
0
0
0
0
0
0
0
0
0
0
0
0
0
0
0
0
0
0
0
0
0
0
0
0
0
0
0
0
0
0
0
0
0
0
0
0
0
0
0
0
0
0
0
0
0
0
0
1
0
1
0
0
0
0
0
0
0
1
1
1
1
0
0
0
0
0
0
0
0
0
0
0
0
0
0
0
0
0
0
0
0
0
0
0
0
0
0
0
0
1
1
0
0
0
0
0
0
0
0
0
0
0
0
0
0
0
0
0
0
1
0
0
0
0
0
0
0
1
1
0
1
1
0
0
1
0
0
0
0
0
0
0
1
0
1
0
0
0
0
0
0
0
0
0
0
0
0
0
0
0
0
0
0
0
0
0
0
0
0
0
0
0
1
1
0
0
0
1
1
0
0
0
0
1
0
0
1
0
1
0
0
0
0
0
1
0
0
0
1
0
0
0
0
0
0
0
0
0
0
0
0
0
0
0
0
0
0
0
0
0
0
0
0
0
0
0
1
0
0
0
0
0
0
1
0
0
0
0
0
0
0
0
0
0
0
0
0
0
0
0
0
0
0
0
0
0
0
0
0
0
0
0
0
1
0
1
0
0
0
0
0
0
0
1
0
0
0
0
0
0
0
0
0
0
0
1
0
0
0
0
0
0
0
0
0
1
0
0
0
0
0
0
0
1
0
0
0
0
0
0
0
1
0
0
0
0
0
0
0
0
0
0
0
0
0
0
0
0
0
0
0
1
0
1
0
0
0
0
0
1
0
0
0
0
0
0
0
0
0
0
0
0
0
0
0
0
0
0
0
0
0
0
0
0
0
1
0
1
0
0
0
0
0
0
0
0
0
1
0
0
0
0
0
1
0
0
0
0
0
0
0
0
0
0
0
0
0
0
0
1
0
0
0
0
0
0
0
0
1
0
0
0
0
0
0
0
0
0
0
0
0
0
0
0
0
0
0
0
0
0
0
0
0
0
0
0
0
0
0
1
0
0
0
0
0
0
0
0
0
0
0
0
0
0
0
0
1
0
0
0
0
0
0
0
0
1
0
0
0
0
0
0
0
0
0
1
0
0
0
0
0
1
0
0
0
0
0
0
0
0
0
0
0
0
0
0
0
0
0
0
0
1
0
0
0
0
0
0
1
0
0
0
0
0
0
0
0
1
0
0
0
0
0
0
0
0
0
0
0
0
0
0
1
0
0
1
0
0
0
1
0
0
0
0
0
0
0
0
0
0
0
0
0
0
0
0
1
0
0
0
0
0
0
0
0
0
0
1
0
1
0
0
0
0
0
0
1
0
0
0
0
0
0
0
0
0
0
0
0
0
0
0
0
0
0
0
0
0
0
0
0
0
0
0
1
1
0
0
0
0
0
0
1
0
0
0
0
0
0
0
0
0
0
0
0
0
1
0
0
0
0
0
0
0
1
0
0
0
0
0
0
0
0
0
0
0
0
0
0
0
0
0
0
0
0
0
0
0
0
0
0
0
1
0
0
0
0
0
0
0
0
0
0
1
0
0
1
0
0
0
0
0
0
0
0
0
0
0
0
0
0
0
0
0
0
0
0
0
0
0
0
0
0
0
0
0
1
0
0
0
0
0
0
0
1
0
0
0
0
0
0
0
1
0
0
0
0
1
0
0
0
0
0
0
0
0
0
0
0
1
0
1
0
0
0
1
0
				</DataArray>
				<DataArray type="Float64" Name="h" NumberOfComponents="1" Format="ascii">
1.1588692681
1.1588663658
1.1601232930
1.1588511133
1.1602867347
1.1600511643
1.1594420115
1.1583133214
1.1592817691
1.1574888021
1.1585134027
1.1596902982
1.1582255586
1.1580531892
1.1584520884
1.1575318954
1.1591944882
1.1575969670
1.1588073662
1.1583277349
1.1606875336
1.1584420149
1.1596292511
1.1610335557
1.1587583520
1.1573439004
1.1590895293
1.1625333470
1.1604351668
1.1577279595
1.1579683457
1.1597590483
1.1583053957
1.1601643950
1.1630178003
1.1613181612
1.1618294567
1.1598233490
1.1623232881
1.1610723774
1.1605246516
1.1628437379
1.1592539534
1.1606730501
1.1613896702
1.1619052590
1.1599880812
1.1637784221
1.1712501399
1.1703519465
1.1612628554
1.1615760651
1.1608074431
1.1658442941
1.1625251181
1.1594283141
1.1620427705
1.1651484557
1.1659322822
1.1654056569
1.1671600957
1.1664826675
1.1705699232
1.1617049812
1.1610622477
1.1638957099
1.1694323790
1.1696402056
1.1665196395
1.1657916866
1.1658798339
1.1627301206
1.1599407751
1.1666628797
1.1662450850
1.1629652210
1.1652672891
1.1672254998
1.1644249246
1.1629120529
1.1684937390
1.1646823682
1.1739096577
1.1686691985
1.1619338465
1.1639943703
1.1691419505
1.1676990939
1.1677973987
1.1732944560
1.1697726367
1.1632001381
1.1678491740
1.1725437408
1.1650819426
1.1642217542
1.1667044815
1.1621365392
1.1630217961
1.1692498666
1.1733696912
1.1685031589
1.1661714567
1.1643949988
1.1568352195
1.1686859042
1.1653551270
1.1719777275
1.1672492353
1.1652824449
1.1718162088
1.1726538610
1.1689064716
1.1700768911
1.1671537424
1.1721643883
1.1663375966
1.1571679408
1.1715344803
1.1681323232
1.1568322542
1.1668703091
1.1641613925
1.1565211607
1.1692861248
1.1720902645
1.1673168084
1.1563402639
1.1714825036
1.1724351432
1.1710024504
1.1656460067
1.1683039148
1.1719222275
1.1570802287
1.1710038566
1.1568464410
1.1724260477
1.1697804121
1.1577933132
1.1562166830
1.1567725837
1.1715032770
1.1584869667
1.1644633194
1.1703949543
1.1572379121
1.1738665315
1.1565769228
1.1741566418
1.1566294300
1.1723731190
1.1728449875
1.1739270361
1.1691728050
1.1730185854
1.1731653171
1.1565083141
1.1738885022
1.1558006878
1.1581226633
1.1736733374
1.1569946478
1.1560528991
1.1563956716
1.1733806757
1.1592431647
1.1575300478
1.1562279926
1.1732758540
1.1729918549
1.1558700483
1.1735346778
1.1563738639
1.1595864375
1.1735660075
1.1588124298
1.1746388114
1.1735428958
1.1560105653
1.1730613152
1.1604289072
1.1557343804
1.1646544640
1.1557193842
1.1557972954
1.1600763128
1.1738145295
1.1561031964
1.1556452756
1.1613397496
1.1735880167
1.1556052881
1.1609959892
1.1734637626
1.1743497081
1.1560567925
1.1623469503
1.1619756451
1.1745424263
1.1556131246
1.1655434045
1.1557322751
1.1741135121
1.1634854413
1.1556577202
1.1574560171
1.1565322024
1.1630483201
1.1586819639
1.1610785614
1.1556842937
1.1559260583
1.1555792931
1.1569610474
1.1620389904
1.1580260448
1.1558719924
1.1602061181
1.1555860169
1.1642831623
1.1732137236
1.1594073738
1.1713245456
1.1661063507
1.1751013795
1.1745195639
1.1689131204
1.1647902984
1.1739491379
1.1745947418
1.1723338728
1.1675047346
1.1748764295
1.1751067406
1.1701645586
1.1614245867
1.1576900755
1.1554821501
1.1588867604
1.1611618667
1.1567218960
1.1558061345
1.1590069468
1.1567697653
1.1577570498
1.1557961680
1.1605359973
1.1571784199
1.1560366748
1.1582579950
1.1603272103
1.1560641375
1.1624293766
1.1621083016
1.1557633706
1.1583446179
1.1572311137
1.1555803284
1.1721819939
1.1595742603
1.1662603786
1.1691205883
1.1717165135
1.1670683049
1.1751834071
1.1756566146
1.1643830195
1.1750388844
1.1737730251
1.1751291231
1.1597364405
1.1738899660
1.1698386985
1.1711037428
1.1649094926
1.1676857481
1.1704733120
1.1728270626
1.1656848656
1.1745039282
1.1753977499
1.1752220669
1.1756909953
1.1745446963
1.1731120218
1.1684726743
1.1579630407
1.1559840401
1.1560195538
1.1580083626
1.1615219975
1.1569861762
1.1570074086
1.1591121321
1.1612654318
1.1592125056
1.1574514794
1.1562628637
1.1557642280
1.1560079042
1.1574824559
1.1606596938
1.1621999621
1.1625187742
1.1585163172
1.1604636193
1.1585835769
1.1562585102
1.1664194055
1.1700976217
1.1693643426
1.1755839470
1.1644862451
1.1757625060
1.1726243042
1.1597556145
1.1744811482
1.1762681637
1.1598990235
1.1721199841
1.1672328800
1.1743263625
1.1757921645
1.1678816718
1.1686832041
1.1707940057
1.1758021571
1.1714317057
1.1736450176
1.1751235593
1.1763254780
1.1759725958
1.1650451803
1.1733080956
1.1658126088
1.1751491782
1.1583018048
1.1784284190
1.1593760599
1.1614091556
1.1594442530
1.1562300444
1.1616432278
1.1573170452
1.1582903435
1.1573034860
1.1562915516
1.1783505795
1.1682489262
1.1623369643
1.1745192127
1.1577831396
1.1565178187
1.1792995298
1.1588197565
1.1702691391
1.1606365619
1.1588541815
1.1766623176
1.1769194883
1.1792551303
1.1560085524
1.1608068769
1.1626356132
1.1577866633
1.1654557657
1.1675641231
1.1714648495
1.1563004485
1.1735468586
1.1784956241
1.1565540398
1.1769351613
1.1730649042
1.1725353232
1.1764469844
1.1580411647
1.1764170078
1.1666108866
1.1646241983
1.1750692260
1.1761917577
1.1599723576
1.1748840494
1.1600860994
1.1674116534
1.1703888275
1.1696349183
1.1611737754
1.1766116499
1.1652273500
1.1717913299
1.1641164307
1.1770051595
1.1737980578
1.1584980081
1.1601518956
1.1606065099
1.1623345708
1.1681038383
1.1757561666
1.1617995573
1.1741664569
1.1630960409
1.1764402921
1.1757638137
1.1659602608
1.1689103332
1.1614367380
1.1711322656
1.1667644395
1.1752459438
1.1686590952
1.1586539675
1.1786541484
1.1770703791
1.1597209521
1.1758255238
1.1679035560
1.1658538166
1.1643787996
1.1576664670
1.1777698898
1.1795178304
1.1725916305
1.1778714357
1.1565329949
1.1775885407
1.1618093983
1.1698409934
1.1801231476
1.1750706015
1.1791301272
1.1719231029
1.1730463253
1.1799994240
1.1762775601
1.1778742162
1.1662415249
1.1690995620
1.1746297216
1.1581487473
1.1779479119
1.1683783916
1.1591753801
1.1694751043
1.1711961125
1.1740038112
1.1782790479
1.1756531733
1.1775980079
1.1563009008
1.1664216628
1.1609951923
1.1643787751
1.1811427138
1.1799321608
1.1724209064
1.1810016246
1.1568422873
1.1628047482
1.1590823232
1.1768648135
1.1603147155
1.1735221444
1.1710613540
1.1676283665
1.1630408295
1.1581103539
1.1771420397
1.1600578790
1.1756649496
1.1612404244
1.1648240361
1.1707059333
1.1822698737
1.1616783878
1.1568928116
1.1583960107
1.1589639302
1.1630439955
1.1585957254
1.1771318207
1.1814355789
1.1815516159
1.1764035340
1.1595793645
1.1721760067
1.1611458334
1.1698441520
1.1661563367
1.1831485540
1.1572340514
1.1584983925
1.1609258903
1.1595645019
1.1829067476
1.1746967919
1.1598265023
1.1773081364
1.1796591497
1.1614808882
1.1606069733
1.1623346886
1.1605992328
1.1691686492
1.1566372164
1.1642949194
1.1718581416
1.1595790261
1.1620382181
1.1751420414
1.1600587377
1.1665522052
1.1568931750
1.1762463570
1.1675817121
1.1570183323
1.1600963350
1.1620390681
1.1707355120
1.1695160771
1.1789106532
1.1591764936
1.1789776300
1.1603761869
1.1729236422
1.1651223780
1.1618911864
1.1770686767
1.1590831073
1.1740831086
1.1582210322
1.1581108752
1.1630819511
1.1572344220
1.1595653477
1.1566375391
1.1651223203
1.1630447404
1.1626367557
1.1623480127
1.1567863288
1.1623217269
1.1596377214
1.1591168734
1.1612413086
1.1623990076
1.1622282307
1.1810276140
1.1623365452
1.1587010771
1.1646948750
1.1573504736
1.1658716691
1.1628239263
1.1618179714
1.1792434244
1.1803256818
1.1611648748
1.1609536882
1.1799325113
1.1585963907
1.1637637486
1.1762799958
1.1606000978
1.1710607770
1.1737272641
1.1776004792
1.1605873050
1.1715905214
1.1783367959
1.1733790146
1.1679037471
1.1574864056
1.1651024475
1.1682038009
1.1751419545
1.1615333727
1.1601803285
1.1740045737
1.1773080852
1.1612938148
1.1700252941
1.1588297702
1.1778773391
1.1752475969
1.1694748100
1.1656246543
1.1778748948
1.1632629241
1.1612687082
1.1639266485
1.1651466865
1.1664222693
1.1622401101
1.1571995630
1.1828626796
1.1619544121
1.1639479227
1.1610004462
1.1820675468
1.1597695205
1.1725914880
1.1637636649
1.1630069845
1.1814949632
1.1770730848
1.1647264114
1.1631100201
1.1583366294
1.1804596181
1.1656408838
1.1682037446
1.1593169480
1.1739166646
1.1582215020
1.1605880401
1.1618918003
1.1591771821
1.1807282309
1.1672739627
1.1578761077
1.1570187260
1.1605725420
1.1686987118
1.1826744190
1.1573508568
1.1653966349
1.1630070328
1.1676329640
1.1644739675
1.1628244025
1.1600970847
1.1611655787
1.1587016647
1.1800428159
1.1835923912
1.1776754267
1.1719529515
1.1567866709
1.1632835357
1.1630965291
1.1619261540
1.1826825176
1.1791757742
1.1646948591
1.1633784207
1.1822546301
1.1720385389
1.1605805598
1.1578105208
1.1593279614
1.1745228847
1.1613566954
1.1627029916
1.1596384632
1.1783844670
1.1602269255
1.1574503165
1.1587962330
1.1758460695
1.1814835312
1.1842198796
1.1765517080
1.1696603331
1.1609325689
1.1582722099
1.1598143470
1.1840563256
1.1845630008
1.1630819985
1.1637683566
1.1629354064
1.1664860579
1.1802364493
1.1676882869
1.1662975223
1.1860357563
1.1848525099
1.1622209460
1.1627336549
1.1814019470
1.1634919161
1.1642251829
1.1698563466
1.1832585051
1.1854558834
1.1843741989
1.1638331275
1.1640786687
1.1704969694
1.1678540613
1.1669239910
1.1828202063
1.1841850442
1.1793474227
1.1811992581
1.1745783740
1.1852866162
1.1861950595
1.1684774929
1.1835923386
1.1820420935
1.1647263716
1.1867490691
1.1623367997
1.1847971629
1.1623368664
1.1628337403
1.1867549141
1.1656408650
1.1859025246
1.1853737555
1.1609539127
1.1845414520
1.1611237973
1.1604420292
1.1836786207
1.1841221097
1.1588385486
1.1593539615
1.1594575603
1.1594549236
1.1593498812
1.1592971763
1.1596897176
1.1585132597
1.1586528064
1.1602256660
1.1600520293
1.1602854337
1.1602232460
1.1592801514
1.1584532310
1.1594429961
1.1578239652
1.1586523655
1.1592969495
1.1581301591
1.1575965161
1.1588514629
1.1601232195
1.1588115247
1.1577271124
1.1576690639
1.1596669335
1.1583125854
1.1573428936
1.1587573182
1.1574894948
1.1581864300
1.1582240812
1.1606249346
1.1579187228
1.1590521747
1.1578244324
1.1579669353
1.1581293640
1.1601626679
1.1583070589
1.1597650330
1.1586307232
1.1610722213
1.1619289258
1.1591962513
1.1575324001
1.1592604114
1.1623324221
1.1596680994
1.1576692278
1.1605281554
1.1580540498
1.1583293102
1.1606255137
1.1596218142
1.1639018066
1.1584391307
1.1617511416
1.1581844630
1.1606887809
1.1590472013
1.1589462813
1.1632737938
1.1637773331
1.1579187551
1.1613904749
1.1612612174
1.1599966600
1.1625242327
1.1610331605
1.1604297312
1.1620483384
1.1613224914
1.1590851162
1.1623154900
1.1574363765
1.1619184043
1.1630510656
1.1630682840
1.1586284690
1.1608141637
1.1639029560
1.1711246892
1.1697861026
1.1589404993
1.1617520135
1.1623073044
1.1632688493
1.1613165061
1.1610724786
1.1598141784
1.1635593529
1.1630189085
1.1705655377
1.1696334305
1.1634423864
1.1618308749
1.1617074108
1.1630506383
1.1647783560
1.1650928842
1.1606638143
1.1666595782
1.1652413218
1.1627300733
1.1599475492
1.1657973131
1.1609103942
1.1608440985
1.1623161318
1.1671771139
1.1630697132
1.1628426508
1.1652660436
1.1658785505
1.1668003700
1.1662423474
1.1613117703
1.1601872892
1.1665188992
1.1624562468
1.1574370799
1.1657909537
1.1623075733
1.1635601955
1.1637057718
1.1634393378
1.1688285345
1.1641011227
1.1702234124
1.1712546701
1.1615723766
1.1697917630
1.1618972783
1.1646845962
1.1686631055
1.1642392826
1.1711313013
1.1703590346
1.1671602602
1.1664828979
1.1601777651
1.1678525229
1.1668035157
1.1659341996
1.1649224506
1.1652432001
1.1622597319
1.1603295586
1.1647798192
1.1624577885
1.1638568224
1.1625245593
1.1665418837
1.1657980554
1.1671772315
1.1594233279
1.1648561323
1.1663131762
1.1609027310
1.1658452121
1.1650945852
1.1654076490
1.1632070904
1.1651495283
1.1608334709
1.1678486771
1.1688334557
1.1643938636
1.1630295621
1.1642392826
1.1612724881
1.1641020651
1.1685038287
1.1693650377
1.1686566064
1.1678790630
1.1638909499
1.1733692103
1.1694393027
1.1637479828
1.1621467980
1.1678546226
1.1642273480
1.1644292209
1.1702322704
1.1692504770
1.1686807747
1.1636998347
1.1739403440
1.1648548336
1.1672473646
1.1726485267
1.1678526744
1.1663154568
1.1689050474
1.1638574543
1.1629603872
1.1716787813
1.1649242640
1.1672266467
1.1603226738
1.1697850520
1.1622544714
1.1718067283
1.1652858688
1.1665428673
1.1686571817
1.1739378314
1.1656791399
1.1678541621
1.1639890073
1.1668698292
1.1676522487
1.1637492866
1.1570946093
1.1644299662
1.1678823486
1.1619267868
1.1629039558
1.1691411209
1.1739080456
1.1684930790
1.1663374175
1.1644260241
1.1693733276
1.1568308446
1.1677026347
1.1612655566
1.1697843507
1.1656488751
1.1708858205
1.1568131656
1.1720889343
1.1685982384
1.1701800691
1.1677995804
1.1650784934
1.1725518526
1.1721826698
1.1732976706
1.1697726608
1.1714459657
1.1651016865
1.1692822680
1.1673133137
1.1716905752
1.1724377451
1.1661714844
1.1728256282
1.1707374802
1.1656796501
1.1570959037
1.1676553177
1.1706879598
1.1570789057
1.1710047847
1.1682996558
1.1568367172
1.1667054239
1.1644671015
1.1699129285
1.1567710628
1.1691043732
1.1568147192
1.1721807970
1.1700789076
1.1719806475
1.1570049203
1.1651025258
1.1701808685
1.1671568059
1.1565753990
1.1708972323
1.1715057335
1.1563816110
1.1721613935
1.1686002597
1.1703966373
1.1714468408
1.1653529004
1.1567833978
1.1633664968
1.1697605797
1.1726835807
1.1728243286
1.1706913371
1.1564227257
1.1719838078
1.1727242228
1.1697752409
1.1681370875
1.1707503941
1.1723766855
1.1571690574
1.1703790395
1.1715341884
1.1573540862
1.1566273348
1.1728488689
1.1691740750
1.1570070746
1.1563830415
1.1575289787
1.1563940713
1.1691089526
1.1736775065
1.1567848693
1.1562054230
1.1742061412
1.1687211943
1.1699235874
1.1565226333
1.1714797655
1.1581228066
1.1566045610
1.1641585789
1.1710007556
1.1573001084
1.1569927598
1.1709400791
1.1736775905
1.1563417622
1.1738925684
1.1697736473
1.1568487936
1.1719189068
1.1731608218
1.1682441487
1.1727235776
1.1725841943
1.1724223745
1.1735389236
1.1575898919
1.1565708962
1.1697788088
1.1573553415
1.1697712590
1.1564246790
1.1726795972
1.1633637638
1.1703771600
1.1732798742
1.1709394039
1.1719805476
1.1729959058
1.1563722573
1.1741526564
1.1557331251
1.1673428733
1.1566061228
1.1562069272
1.1733747342
1.1735391162
1.1737707763
1.1584852917
1.1738623800
1.1572391746
1.1560090885
1.1742021528
1.1573016746
1.1687263571
1.1558356889
1.1562182618
1.1730649791
1.1709376423
1.1588144347
1.1703972403
1.1577935648
1.1736733015
1.1559249753
1.1561018828
1.1730145484
1.1731611001
1.1565726037
1.1668885690
1.1731567759
1.1569845826
1.1575915805
1.1682488697
1.1557182390
1.1725803397
1.1739232617
1.1565098728
1.1709369204
1.1600810300
1.1659249215
1.1734678232
1.1592395563
1.1559263958
1.1733719715
1.1743535299
1.1558370284
1.1737666561
1.1703951681
1.1738177233
1.1557799831
1.1735348499
1.1673442509
1.1559988960
1.1735917406
1.1714872034
1.1560544220
1.1733772764
1.1610005958
1.1745836859
1.1558019926
1.1655447243
1.1739157354
1.1558713002
1.1557311320
1.1595828714
1.1741175645
1.1668894586
1.1562293169
1.1556119861
1.1569862080
1.1619791018
1.1740401285
1.1735390243
1.1561705130
1.1557811984
1.1560003291
1.1556830753
1.1745797314
1.1738136995
1.1557721401
1.1743603882
1.1604249156
1.1714843299
1.1735622036
1.1659237971
1.1554990445
1.1555383440
1.1746347822
1.1559246792
1.1630504268
1.1613366663
1.1745987707
1.1739116399
1.1556464437
1.1740357568
1.1742556747
1.1743833713
1.1646529250
1.1557984098
1.1738104587
1.1642848203
1.1557950486
1.1577560675
1.1562546675
1.1567682329
1.1623452445
1.1555394878
1.1631277819
1.1556279027
1.1590079220
1.1561686721
1.1561720788
1.1614251919
1.1556064688
1.1554776552
1.1743570010
1.1560583369
1.1555134703
1.1572296494
1.1563881141
1.1624294095
1.1583445089
1.1560628646
1.1605373937
1.1555002290
1.1554810013
1.1557734112
1.1747106192
1.1635817054
1.1634844575
1.1742515795
1.1730996805
1.1597380560
1.1743788473
1.1710910076
1.1656866323
1.1752262850
1.1745009140
1.1749095119
1.1684699302
1.1643835913
1.1738819613
1.1745376282
1.1721676474
1.1670690893
1.1750444563
1.1749401375
1.1751863919
1.1698306996
1.1610767026
1.1580075004
1.1563421519
1.1555871901
1.1592126742
1.1615213904
1.1561701075
1.1631273918
1.1562563410
1.1556722292
1.1632057364
1.1570062981
1.1559831151
1.1556291511
1.1586810737
1.1565338621
1.1574571867
1.1556588174
1.1602037643
1.1574813381
1.1562575089
1.1554787866
1.1585832233
1.1606596146
1.1558732099
1.1620380130
1.1625177146
1.1565961994
1.1556455441
1.1580264262
1.1563895699
1.1569627030
1.1555145340
1.1723472466
1.1598993154
1.1636835167
1.1658141330
1.1686835336
1.1714224215
1.1675051313
1.1749393153
1.1751027339
1.1758046066
1.1647897990
1.1748717701
1.1755139449
1.1736320472
1.1751168743
1.1594053950
1.1747063694
1.1739543810
1.1701734261
1.1713376926
1.1644856809
1.1672351664
1.1700934417
1.1726116494
1.1661053691
1.1745200138
1.1749070016
1.1755890920
1.1635824328
1.1750968968
1.1757924012
1.1744706061
1.1755605463
1.1732239551
1.1689167549
1.1583010338
1.1565851967
1.1558071012
1.1556734558
1.1562293576
1.1576911012
1.1611617466
1.1633086365
1.1573027028
1.1632067460
1.1567231449
1.1594438598
1.1616419670
1.1588864294
1.1563433149
1.1577822899
1.1565171235
1.1556464743
1.1558514562
1.1571796793
1.1603264690
1.1626339737
1.1568766343
1.1621087068
1.1565972514
1.1588536225
1.1608060642
1.1582584564
1.1560377296
1.1659605434
1.1704793007
1.1689123000
1.1753930571
1.1649096373
1.1757486234
1.1728408844
1.1600856216
1.1745537879
1.1755633434
1.1761565123
1.1764398814
1.1638206598
1.1595734060
1.1717867642
1.1676846538
1.1741566673
1.1756887831
1.1674136316
1.1691219929
1.1703882802
1.1756529406
1.1636851882
1.1762123900
1.1717276435
1.1737858335
1.1751335150
1.1764443294
1.1761947469
1.1646226867
1.1730567922
1.1662591375
1.1750598192
1.1755143401
1.1786517531
1.1698410941
1.1634645362
1.1758252398
1.1579638900
1.1565860510
1.1786668668
1.1790540487
1.1597202093
1.1690958552
1.1618080230
1.1591122200
1.1753859542
1.1777685235
1.1792548772
1.1560203583
1.1612663463
1.1633108042
1.1576658741
1.1586532041
1.1569870802
1.1667643430
1.1661897556
1.1730467716
1.1565325138
1.1723530332
1.1777183721
1.1568995495
1.1782806449
1.1687018936
1.1628032503
1.1748306619
1.1574524382
1.1562637029
1.1783929608
1.1794727364
1.1591746334
1.1707170624
1.1609941103
1.1585168185
1.1764343848
1.1770447826
1.1789084413
1.1558522130
1.1604639536
1.1622014036
1.1572240640
1.1581480361
1.1568773426
1.1658053310
1.1671660947
1.1719014539
1.1561141455
1.1739312601
1.1785222664
1.1568418141
1.1611119207
1.1771290483
1.1640193968
1.1733187876
1.1634692778
1.1768324103
1.1721749164
1.1763261935
1.1583956599
1.1586998547
1.1600625135
1.1763979061
1.1611455042
1.1622419076
1.1661556515
1.1762174642
1.1650458789
1.1619534620
1.1751590789
1.1635691749
1.1759686623
1.1603138701
1.1746916064
1.1597555928
1.1678798933
1.1707967896
1.1617712009
1.1691700750
1.1614804785
1.1768647172
1.1648224805
1.1721272231
1.1639479401
1.1771381410
1.1735186750
1.1761599844
1.1579404897
1.1582192397
1.1604720958
1.1768934345
1.1609499303
1.1623884632
1.1676288887
1.1757693083
1.1638227136
1.1619541525
1.1743379289
1.1630407674
1.1762667487
1.1756591358
1.1664184777
1.1693637221
1.1616780388
1.1707068198
1.1671796910
1.1791143306
1.1754560560
1.1775407253
1.1675818607
1.1690959099
1.1707356013
1.1733539277
1.1582910855
1.1784951700
1.1765658414
1.1770939806
1.1784926849
1.1669420491
1.1593765260
1.1760489128
1.1683720485
1.1661897597
1.1703010513
1.1646411172
1.1699668820
1.1573177097
1.1777970760
1.1792566868
1.1729693435
1.1792432711
1.1760477732
1.1770688980
1.1776560891
1.1562921873
1.1654787417
1.1777187865
1.1614105429
1.1654558323
1.1658539681
1.1810268604
1.1803248848
1.1703005602
1.1740832570
1.1804084813
1.1753859423
1.1790549696
1.1806644335
1.1569001592
1.1634668257
1.1723527931
1.1734317834
1.1795160062
1.1682493263
1.1800286808
1.1763942684
1.1775885345
1.1777280195
1.1665887112
1.1675640593
1.1695318838
1.1750152131
1.1577874159
1.1786692018
1.1777130000
1.1776057839
1.1679495942
1.1588203543
1.1769202176
1.1699426028
1.1650282599
1.1650283261
1.1716479406
1.1572245593
1.1783521087
1.1793016819
1.1743033602
1.1784115167
1.1759687944
1.1773154614
1.1561147236
1.1668598489
1.1719232566
1.1766627604
1.1606374735
1.1646412372
1.1807272026
1.1798516555
1.1714647654
1.1728453463
1.1801736121
1.1739309412
1.1785234355
1.1811971118
1.1565546672
1.1623388076
1.1707167346
1.1745191474
1.1586887494
1.1766095629
1.1804596802
1.1820672936
1.1768982942
1.1599729156
1.1589643001
1.1738043567
1.1609503265
1.1715906185
1.1714973555
1.1681025457
1.1630960515
1.1828624110
1.1572876401
1.1587001769
1.1577234662
1.1770082783
1.1616512458
1.1596988098
1.1822545455
1.1757714069
1.1598902896
1.1760146436
1.1807410775
1.1611124044
1.1601523029
1.1626377607
1.1626378622
1.1608659385
1.1652284061
1.1711327972
1.1819475631
1.1614371280
1.1627374926
1.1566229634
1.1580415065
1.1651020502
1.1705977063
1.1592765736
1.1605625559
1.1625414401
1.1590955840
1.1768143523
1.1581973873
1.1769365222
1.1814949621
1.1814737460
1.1764233558
1.1590383977
1.1725388311
1.1604724521
1.1703421562
1.1666107051
1.1627375731
1.1826822372
1.1569142717
1.1582196026
1.1576474923
1.1768371608
1.1612682971
1.1591876050
1.1827165752
1.1748917606
1.1592768982
1.1776790356
1.1798071527
1.1611742519
1.1600629855
1.1623886190
1.1608066616
1.1602449473
1.1640211267
1.1696336563
1.1821430640
1.1617715349
1.1564259004
1.1579408568
1.1595719564
1.1636951608
1.1724099887
1.1585105994
1.1598900024
1.1616134661
1.1755476643
1.1633918340
1.1572880997
1.1596995227
1.1669419687
1.1566234525
1.1765655915
1.1662414116
1.1636963219
1.1627674269
1.1679812112
1.1632694463
1.1573149758
1.1629251198
1.1801392472
1.1604642722
1.1711769533
1.1594781535
1.1616146149
1.1624124839
1.1711768650
1.1719009285
1.1699667810
1.1619420083
1.1777953505
1.1783961662
1.1665522764
1.1658056783
1.1801401449
1.1621438626
1.1596047480
1.1791142113
1.1770467376
1.1653664243
1.1599550268
1.1671793536
1.1577607024
1.1733537746
1.1735468445
1.1654038836
1.1647795633
1.1791292683
1.1640058361
1.1626116003
1.1784319878
1.1807470804
1.1671659424
1.1772995781
1.1813339857
1.1623398595
1.1609302563
1.1772993783
1.1792706369
1.1586894621
1.1633151268
1.1744645671
1.1586559984
1.1577239965
1.1784959645
1.1630950780
1.1569147404
1.1591883182
1.1657042099
1.1564263309
1.1750149992
1.1654038084
1.1729237716
1.1625425766
1.1627903804
1.1690994585
1.1629409522
1.1570186871
1.1627334572
1.1600345275
1.1595070093
1.1608669080
1.1626865898
1.1686592136
1.1724208661
1.1683782874
1.1628335501
1.1792568103
1.1789777443
1.1804093736
1.1628553351
1.1591450034
1.1779477340
1.1644181714
1.1597626032
1.1577045826
1.1716478194
1.1813334121
1.1657042579
1.1654539772
1.1633592563
1.1623367001
1.1800288271
1.1810022932
1.1615531378
1.1613064082
1.1782789082
1.1806646884
1.1581980310
1.1636322967
1.1756529708
1.1581633660
1.1576479042
1.1763983930
1.1602457427