<VTKFile type="UnstructuredGrid" version="0.1">
	<UnstructuredGrid>
		<Piece NumberOfPoints="1862" NumberOfCells="3498">
			<CellData>
				<DataArray type="Int32" Name="type" NumberOfComponents="1" Format="ascii">
0
0
0
0
0
0
0
0
0
0
0
0
0
0
0
0
1
0
0
1
0
0
0
0
0
0
0
0
0
0
0
0
0
1
0
0
0
0
0
0
0
0
0
0
0
0
0
0
0
0
1
0
0
0
0
0
0
0
0
0
0
1
0
0
0
0
0
0
0
0
0
0
0
0
0
0
0
0
0
0
0
0
0
0
0
0
0
0
0
0
0
0
0
0
0
0
0
0
0
0
0
0
0
0
0
0
0
0
0
0
0
0
0
0
0
0
0
0
0
0
0
0
0
1
0
0
0
0
0
0
0
0
0
0
0
0
0
0
0
0
0
0
0
0
0
0
0
0
0
0
0
1
0
1
1
0
0
0
0
0
0
0
0
0
0
0
0
0
1
0
1
0
0
0
0
1
0
0
0
0
0
0
0
0
1
1
0
0
0
0
0
1
0
0
0
0
0
0
0
0
1
0
0
0
0
0
0
0
0
0
0
0
0
0
0
0
0
0
0
0
0
0
0
0
0
0
0
0
0
0
0
0
0
1
0
0
0
0
0
0
0
0
0
0
0
0
0
0
0
0
0
0
0
0
0
0
0
0
0
0
0
0
0
0
0
0
0
0
0
0
0
0
0
0
0
0
0
0
0
0
0
1
0
0
0
0
0
0
0
0
0
0
0
0
0
0
0
0
0
0
0
0
0
0
0
0
0
0
0
0
0
0
0
0
0
0
0
0
0
0
0
0
0
0
0
0
0
0
0
0
0
0
1
0
0
0
0
0
0
0
0
0
0
0
0
0
0
0
0
0
0
0
0
0
0
0
0
0
0
0
0
0
0
0
0
0
0
0
0
0
0
0
0
0
0
0
0
0
0
0
0
0
0
0
0
0
0
0
0
0
1
0
0
0
0
0
0
0
0
0
0
0
0
0
0
0
0
0
0
0
0
0
0
0
0
0
0
0
0
0
0
0
0
0
0
0
0
0
0
0
0
0
0
0
0
0
0
0
0
0
0
0
0
0
0
0
0
0
0
0
0
0
0
0
0
0
0
0
0
0
0
0
0
0
0
0
0
0
0
0
0
0
0
0
0
0
0
0
0
0
0
0
0
0
0
0
0
0
0
0
0
0
0
0
0
0
0
0
0
0
0
0
0
0
0
0
0
0
0
0
0
0
0
0
0
0
0
0
0
0
0
0
0
1
0
0
0
0
0
0
0
0
0
0
0
0
0
0
0
0
0
0
0
1
0
0
0
0
0
0
0
0
0
0
0
0
0
0
0
0
0
0
0
0
0
0
0
0
0
0
0
0
0
0
0
0
0
0
0
0
0
0
0
0
0
0
0
0
0
0
0
0
0
0
0
0
0
1
0
0
0
0
0
0
0
0
0
0
0
0
0
0
0
0
0
0
0
0
0
0
0
1
0
0
0
0
0
0
0
0
0
0
0
0
0
0
0
0
0
0
0
1
0
0
0
1
0
0
0
0
0
0
0
0
0
0
0
0
0
0
0
0
0
0
0
0
0
0
0
0
0
1
0
0
0
0
0
0
0
1
0
0
0
0
0
0
0
0
0
0
0
0
0
0
0
0
0
0
0
0
0
0
0
0
0
0
1
0
0
0
0
0
0
0
1
0
0
0
0
0
0
1
0
0
0
0
0
0
0
0
0
0
0
0
0
0
0
0
0
0
0
0
0
0
0
0
0
0
0
0
0
0
0
0
0
0
0
0
0
0
1
0
0
0
0
0
1
0
0
0
0
0
0
0
1
0
0
0
0
0
0
0
0
0
0
0
0
0
1
0
0
0
0
0
0
0
0
0
0
0
0
0
0
0
0
0
0
0
0
0
0
0
0
0
0
0
0
0
0
0
0
0
0
0
0
0
0
0
0
0
0
0
0
0
0
0
0
0
0
0
0
0
1
0
0
0
0
0
0
0
0
0
0
0
0
0
0
0
0
0
0
0
1
0
0
0
0
0
0
0
0
0
1
0
0
0
0
0
0
0
0
0
0
0
0
0
0
0
0
0
0
0
0
0
0
0
0
0
0
0
0
0
1
0
1
0
0
0
0
0
0
0
0
0
0
0
0
0
0
0
0
0
0
0
0
0
0
0
0
0
0
0
1
0
0
0
1
0
0
0
0
0
0
0
0
0
0
0
0
0
0
0
0
0
0
0
0
0
0
0
0
0
0
0
0
1
0
0
0
0
0
0
0
0
0
0
0
0
0
0
0
0
0
0
0
0
0
0
0
0
0
1
0
0
0
0
0
0
0
0
0
0
0
0
0
0
0
0
0
0
0
0
0
0
0
1
0
0
0
0
0
0
1
0
0
0
0
0
0
0
0
0
0
0
1
0
0
0
0
0
0
0
0
0
0
0
0
0
0
0
0
0
0
0
0
1
0
0
0
0
0
0
0
0
0
0
0
1
0
0
0
0
0
0
0
0
0
0
0
0
0
0
0
0
0
0
0
0
0
1
0
0
0
0
0
0
0
0
0
1
1
0
1
0
1
0
0
0
0
0
0
0
0
0
0
0
1
0
0
0
0
0
1
1
0
0
0
0
0
0
1
0
0
0
0
0
1
1
1
0
0
0
0
0
0
0
0
0
0
0
0
1
1
0
0
1
0
0
0
0
0
1
0
0
0
1
0
1
0
0
0
0
0
0
0
1
0
0
0
0
0
0
0
1
0
0
1
0
0
0
0
0
0
0
0
0
0
0
0
0
0
0
1
0
0
0
0
0
0
0
0
0
0
0
0
0
0
0
0
0
0
0
0
0
0
0
0
0
0
0
0
0
0
0
0
0
0
0
0
1
0
0
0
0
0
0
1
0
0
0
1
0
0
0
0
0
0
0
0
0
0
0
1
0
0
0
0
0
0
0
0
0
0
0
0
0
0
0
0
0
0
0
0
0
0
0
0
0
0
0
0
0
0
0
0
0
0
0
0
0
0
0
0
1
1
0
0
0
0
0
0
0
0
0
0
0
0
0
1
0
0
0
0
0
0
0
0
0
0
0
0
0
0
0
0
0
0
0
0
0
0
0
0
0
0
0
0
0
0
0
0
0
0
0
0
0
0
0
0
0
0
0
0
0
0
0
0
0
0
0
0
0
0
0
0
0
0
0
0
0
0
0
0
0
0
0
0
0
0
0
0
1
1
0
0
0
0
0
0
0
0
1
0
0
0
0
0
0
0
0
0
0
0
0
0
0
0
0
0
0
0
0
0
0
0
1
0
0
0
0
0
0
0
0
0
0
0
0
0
0
0
0
1
0
0
0
0
0
0
0
0
0
0
0
0
0
0
0
0
0
0
0
0
0
0
0
0
0
0
0
0
0
0
0
0
0
0
0
0
0
0
0
0
0
0
0
0
0
0
0
0
0
0
0
0
0
0
0
0
0
0
0
0
0
0
0
0
0
0
0
0
0
0
0
0
0
0
0
0
0
0
0
0
0
0
0
0
0
0
0
0
0
0
1
1
0
0
0
0
0
1
0
0
0
0
0
0
0
0
0
0
0
0
1
0
0
0
0
0
0
0
0
0
0
0
0
0
0
0
0
0
0
0
0
0
0
0
0
0
0
0
0
0
0
0
0
0
0
0
0
0
0
0
0
0
0
0
0
0
0
0
0
0
0
0
0
0
1
0
1
0
0
0
0
0
0
0
0
0
0
0
0
0
0
0
0
0
0
1
0
0
0
0
0
0
0
0
0
0
0
0
0
0
0
0
0
0
0
0
0
0
0
0
0
0
0
0
0
0
0
0
0
0
0
0
0
0
0
0
0
0
0
0
0
0
0
0
0
0
0
0
0
0
0
0
0
0
0
0
0
0
0
0
0
0
0
0
0
0
1
0
0
0
0
0
0
0
0
0
0
1
0
0
0
0
0
0
0
0
0
0
0
0
0
0
0
0
0
0
0
0
0
0
0
0
0
0
0
0
0
0
0
0
0
0
0
0
0
1
0
0
0
0
0
0
0
0
0
0
0
0
0
0
0
0
0
0
0
0
0
0
0
0
0
0
0
0
0
0
0
0
0
0
0
0
0
0
0
0
0
0
0
0
0
0
0
0
0
0
0
0
0
0
0
0
0
0
0
0
0
0
0
0
0
0
0
0
0
0
0
0
0
0
0
0
0
0
0
0
0
1
0
0
0
0
0
0
0
0
0
0
0
0
0
0
0
0
0
0
0
0
0
0
0
0
0
0
0
0
0
0
0
0
0
0
0
0
0
0
0
0
0
0
0
0
0
0
0
0
0
0
0
0
0
0
0
0
0
0
0
0
0
0
0
0
0
0
0
0
0
0
0
0
0
0
0
0
0
0
0
0
0
0
0
0
0
0
0
0
0
0
0
0
0
0
0
0
0
0
0
0
0
0
0
0
0
0
0
0
0
0
0
0
0
0
0
0
0
0
0
0
0
0
0
1
0
0
0
0
0
0
0
0
0
0
0
0
0
0
0
0
0
0
0
0
0
0
0
0
0
0
0
0
0
0
0
0
0
0
0
0
0
0
0
0
0
0
0
0
0
0
0
0
0
0
0
0
0
0
0
0
0
0
0
0
0
0
0
0
0
0
0
0
0
0
0
0
0
0
0
0
0
0
0
0
0
1
0
0
0
0
0
0
0
1
0
0
0
0
0
0
0
0
0
0
0
0
0
0
0
0
0
0
0
0
0
0
0
0
0
0
0
0
0
0
0
0
0
0
0
0
0
1
0
0
0
0
0
0
0
0
0
0
0
0
0
0
0
0
0
0
0
0
0
1
0
0
0
0
0
0
0
0
0
0
0
0
1
1
0
0
0
0
0
0
0
0
0
0
0
0
0
0
0
1
1
0
1
0
0
0
0
0
0
0
0
0
1
0
0
0
0
0
0
1
0
0
0
0
0
0
0
0
0
0
1
0
0
0
0
1
0
1
0
0
0
0
0
0
0
1
0
0
0
1
0
0
0
1
0
1
1
0
0
1
1
0
0
0
1
0
0
0
1
0
0
0
0
0
0
0
0
0
1
0
0
0
0
0
0
1
0
0
0
0
0
0
0
0
0
0
0
0
0
0
0
0
0
0
0
0
0
0
0
0
0
0
0
1
0
0
1
0
0
0
0
0
0
0
0
0
0
0
0
0
0
0
0
0
0
1
0
0
1
0
0
0
0
0
0
0
0
0
0
0
1
0
0
1
0
0
0
0
0
0
0
0
0
0
0
1
1
0
0
0
0
0
0
0
0
0
0
0
0
1
0
0
0
0
0
0
0
0
0
0
0
0
0
0
0
0
0
1
0
0
0
0
0
0
0
0
0
0
0
0
0
0
0
0
0
1
0
0
0
0
0
0
0
0
0
0
0
0
0
0
0
0
0
0
0
0
0
0
0
0
0
0
0
0
0
0
0
0
0
0
0
0
0
0
0
0
1
0
0
0
0
0
0
0
0
0
0
0
0
0
0
0
0
0
0
0
0
0
0
0
0
0
0
0
0
0
0
0
0
0
0
0
0
0
0
0
0
0
0
0
0
0
1
0
0
0
0
0
0
0
0
0
0
0
0
0
0
0
0
0
0
0
0
0
0
0
0
0
0
0
0
0
0
0
0
0
0
0
0
0
0
0
0
0
0
0
0
0
0
0
1
0
0
0
0
0
0
0
0
0
0
1
0
0
0
0
0
0
0
0
0
0
0
0
0
0
0
1
0
0
1
0
0
0
0
0
0
0
0
0
0
0
0
0
0
0
0
0
0
0
0
0
0
0
1
0
0
0
0
0
0
0
0
0
0
0
0
0
0
0
0
0
0
0
0
0
0
0
0
0
0
0
0
0
0
0
0
0
0
0
1
0
0
0
0
0
0
0
0
0
0
0
0
0
0
0
0
0
0
0
0
0
0
0
0
0
0
0
0
0
0
0
0
0
0
0
0
0
0
0
0
0
0
0
0
0
0
0
0
0
0
0
0
0
0
0
0
0
0
0
0
0
0
0
0
0
0
0
0
0
0
0
0
0
0
0
0
1
0
0
0
0
0
0
0
0
0
0
0
0
0
0
0
0
0
0
0
0
0
0
0
0
0
0
0
0
0
0
0
0
0
0
0
0
0
0
0
1
0
0
0
0
0
0
0
0
0
0
0
0
1
1
0
0
0
0
0
0
0
0
0
0
0
0
0
0
0
0
0
0
0
0
0
0
0
0
0
0
0
0
0
0
0
0
0
0
0
0
0
0
0
0
0
0
0
0
0
0
0
0
0
0
0
0
0
0
0
0
0
0
0
0
0
0
0
0
0
0
0
0
0
0
0
0
0
0
0
0
0
0
0
0
0
0
0
0
0
0
0
0
0
0
0
0
0
0
0
0
0
0
0
0
0
1
0
1
0
0
0
0
0
0
0
1
1
1
1
0
0
0
0
0
0
0
0
0
0
0
0
0
0
0
0
0
0
0
0
0
0
0
0
0
0
0
0
1
1
0
0
0
0
0
0
0
0
0
0
0
0
0
0
0
0
0
0
1
0
0
0
0
0
0
0
1
1
0
1
1
0
0
1
0
0
0
0
0
0
0
1
0
1
0
0
0
0
0
0
0
0
0
0
0
0
0
0
0
0
0
0
0
0
0
0
0
0
0
0
0
1
1
0
0
0
1
1
0
0
0
0
1
0
0
1
0
1
0
0
0
0
0
1
0
0
0
1
0
0
0
0
0
0
0
0
0
0
0
0
0
0
0
0
0
0
0
0
0
0
0
0
0
0
0
1
0
0
0
0
0
0
1
0
0
0
0
0
0
0
0
0
0
0
0
0
0
0
0
0
0
0
0
0
0
0
0
0
0
0
0
0
1
0
1
0
0
0
0
0
0
0
1
0
0
0
0
0
0
0
0
0
0
0
1
0
0
0
0
0
0
0
0
0
1
0
0
0
0
0
0
0
1
0
0
0
0
0
0
0
1
0
0
0
0
0
0
0
0
0
0
0
0
0
0
0
0
0
0
0
1
0
1
0
0
0
0
0
1
0
0
0
0
0
0
0
0
0
0
0
0
0
0
0
0
0
0
0
0
0
0
0
0
0
1
0
1
0
0
0
0
0
0
0
0
0
1
0
0
0
0
0
1
0
0
0
0
0
0
0
0
0
0
0
0
0
0
0
1
0
0
0
0
0
0
0
0
1
0
0
0
0
0
0
0
0
0
0
0
0
0
0
0
0
0
0
0
0
0
0
0
0
0
0
0
0
0
0
1
0
0
0
0
0
0
0
0
0
0
0
0
0
0
0
0
1
0
0
0
0
0
0
0
0
1
0
0
0
0
0
0
0
0
0
1
0
0
0
0
0
1
0
0
0
0
0
0
0
0
0
0
0
0
0
0
0
0
0
0
0
1
0
0
0
0
0
0
1
0
0
0
0
0
0
0
0
1
0
0
0
0
0
0
0
0
0
0
0
0
0
0
1
0
0
1
0
0
0
1
0
0
0
0
0
0
0
0
0
0
0
0
0
0
0
0
1
0
0
0
0
0
0
0
0
0
0
1
0
1
0
0
0
0
0
0
1
0
0
0
0
0
0
0
0
0
0
0
0
0
0
0
0
0
0
0
0
0
0
0
0
0
0
0
1
1
0
0
0
0
0
0
1
0
0
0
0
0
0
0
0
0
0
0
0
0
1
0
0
0
0
0
0
0
1
0
0
0
0
0
0
0
0
0
0
0
0
0
0
0
0
0
0
0
0
0
0
0
0
0
0
0
1
0
0
0
0
0
0
0
0
0
0
1
0
0
1
0
0
0
0
0
0
0
0
0
0
0
0
0
0
0
0
0
0
0
0
0
0
0
0
0
0
0
0
0
1
0
0
0
0
0
0
0
1
0
0
0
0
0
0
0
1
0
0
0
0
1
0
0
0
0
0
0
0
0
0
0
0
1
0
1
0
0
0
1
0
				</DataArray>
				<DataArray type="Float64" Name="h" NumberOfComponents="1" Format="ascii">
1.1313257314
1.1312900246
1.1431967038
1.1342599269
1.1443849482
1.1417849294
1.1381168996
1.1294186416
1.1355847933
1.1241087321
1.1317719022
1.1399546507
1.1263519749
1.1290351230
1.1291619902
1.1184510457
1.1367445912
1.1235590214
1.1298299274
1.1312085694
1.1475225425
1.1249535722
1.1358889646
1.1495090437
1.1340010175
1.1156698047
1.1278433624
1.1596656006
1.1432754195
1.1269769458
1.1291164587
1.1379992497
1.1223946821
1.1436050193
1.1685541357
1.1514592468
1.1570485860
1.1357529680
1.1585686485
1.1509093665
1.1453875060
1.1642119631
1.1305631864
1.1441656791
1.1534249780
1.1545390513
1.1383228150
1.1752185860
1.2256689577
1.2173575713
1.1522592730
1.1529556359
1.1466094918
1.1902717372
1.1623470246
1.1296038893
1.1571904492
1.1890503906
1.1942835595
1.1887003928
1.2083608341
1.2020706025
1.2242122909
1.1553564931
1.1477662779
1.1716303513
1.2093629035
1.2154962322
1.2019146007
1.1950876463
1.1957580776
1.1650551506
1.1349581365
1.1970915617
1.1959360917
1.1620598844
1.1896919978
1.2075703947
1.1824312264
1.1618438528
1.2205325409
1.1781995280
1.2418517188
1.2070178388
1.1525821300
1.1711587361
1.2253219597
1.1987529474
1.2098605032
1.2348983359
1.2265227876
1.1649808850
1.2138679016
1.2273385344
1.1800004994
1.1737059319
1.1901358239
1.1559208359
1.1637582546
1.2249238830
1.2383997841
1.2207098603
1.1889796311
1.1815855435
1.1192261705
1.2019970520
1.1807861282
1.2303114170
1.2057781532
1.1825920536
1.2231636448
1.2309566516
1.2203360416
1.2257005503
1.1979675699
1.2440350758
1.1917021903
1.1222482686
1.2362568312
1.2070569084
1.1204243981
1.1930876142
1.1717433456
1.1210275203
1.2197050314
1.2338672103
1.2008330784
1.1195867394
1.2427897374
1.2440965392
1.2370247866
1.1836854805
1.2101935552
1.2477610771
1.1232245851
1.2346189881
1.1124162832
1.2488811006
1.2315009878
1.1163699837
1.1178369135
1.1223007965
1.2415892368
1.1205095175
1.1747357217
1.2334298839
1.1136964950
1.2532475821
1.1205131116
1.2567787772
1.1112091848
1.2510559849
1.2520644568
1.2588946516
1.2268051173
1.2498502840
1.2565083796
1.1173016935
1.2568103350
1.1169882699
1.1165817179
1.2534597999
1.1113224848
1.1167971955
1.1183156580
1.2479958378
1.1263383855
1.1132459979
1.1191930170
1.2521129123
1.2555063744
1.1183309149
1.2575508774
1.1159443722
1.1281753562
1.2602219368
1.1214699041
1.2524454287
1.2598302074
1.1159188554
1.2477713181
1.1364402516
1.1161074211
1.1750997834
1.1180376336
1.1178003883
1.1338072365
1.2588014483
1.1187120909
1.1184238786
1.1458071821
1.2597262147
1.1167218502
1.1426223664
1.2597331707
1.2505152176
1.1129701004
1.1557977858
1.1522299522
1.2579433864
1.1183752076
1.1807048198
1.1180296908
1.2589133778
1.1658261453
1.1118601995
1.1106146660
1.1089245649
1.1622207009
1.1180627191
1.1417940587
1.1175071836
1.1122768206
1.1122786848
1.1092260975
1.1519520564
1.1135253922
1.1104797349
1.1324352011
1.1146895243
1.1718552532
1.2275926680
1.1243982816
1.2129602517
1.1833846471
1.2551435556
1.2415998079
1.1987951127
1.1750404473
1.2348858804
1.2573748545
1.2201611667
1.1912340223
1.2571071304
1.2518945843
1.2059883324
1.1451561048
1.1067320670
1.1151085692
1.1149698194
1.1407224430
1.1047897785
1.1082742581
1.1190223671
1.1073667111
1.1099834604
1.1102514923
1.1351463640
1.1051299933
1.1065640832
1.1099398554
1.1306667763
1.1087091830
1.1556533272
1.1514626231
1.1087261086
1.1136119779
1.1079747387
1.1122823429
1.2167039681
1.1219363293
1.1826693927
1.1966101434
1.2098773009
1.1880985671
1.2492832453
1.2521421436
1.1716932348
1.2558025464
1.2237718274
1.2375690599
1.1262769539
1.2312257416
1.2027253763
1.2097005174
1.1747056783
1.1898459014
1.2032242442
1.2167085721
1.1802720133
1.2381252595
1.2545874646
1.2530894191
1.2484418988
1.2308509936
1.2239560965
1.1955360878
1.1018515640
1.1063205037
1.1039573049
1.1058628608
1.1443339095
1.0997669682
1.1028955196
1.1110329050
1.1395457979
1.1159229086
1.1000957115
1.1019337585
1.1087293989
1.1044562652
1.1036371595
1.1335799886
1.1510963201
1.1553370769
1.1054069739
1.1284392342
1.1098959100
1.1044763297
1.1817300760
1.2000954942
1.1944458807
1.2528197536
1.1713133425
1.2329422324
1.2132364280
1.1188053702
1.2270952186
1.2483323220
1.1239317815
1.2064960095
1.1868993140
1.2195149736
1.2454786123
1.1883488592
1.1936083942
1.2004052745
1.2496953176
1.2065885326
1.2201060392
1.2339020736
1.2442285338
1.2512083808
1.1741504612
1.2128613713
1.1796114631
1.2263120428
1.1006731996
1.2316589186
1.1060077623
1.1383697089
1.1120060967
1.1016324265
1.1444376649
1.0935969145
1.0956562689
1.0974590677
1.0988167802
1.2175021733
1.1805621015
1.1506795650
1.1968609405
1.0982168575
1.0994380784
1.2199103721
1.0996142416
1.1822963178
1.1261503245
1.1052014347
1.1997687345
1.2065857276
1.2248692441
1.1044587824
1.1318377142
1.1560404994
1.0938009365
1.1699530623
1.1763436283
1.1886407575
1.0993761762
1.1889152252
1.2058976646
1.0963961369
1.2436470325
1.2094187392
1.2029328920
1.2409257060
1.0639898953
1.2277252324
1.1805779710
1.1709234475
1.2224825664
1.2489675655
1.1149476953
1.2148875341
1.1209940707
1.1855425109
1.1974346251
1.1921441937
1.0663851020
1.2469254235
1.1735788401
1.2033037344
1.1530761025
1.2392022781
1.2087281570
1.0515593419
1.0435521489
1.0453068910
1.1217683856
1.1866581078
1.2291102330
1.1026695931
1.2158402205
1.1390059132
1.2454823623
1.2213030801
1.1787571833
1.1916221797
1.0834934926
1.1974641327
1.1756009473
1.2064278504
1.1787231135
1.0940904397
1.2228940817
1.2180037790
1.1071110274
1.2015264476
1.1823340786
1.1698739697
1.1619034602
1.0907110601
1.2119821540
1.2207137922
1.1962868073
1.2344860698
1.0960291774
1.2010897639
1.1437216240
1.1847457284
1.2172886382
1.1925705053
1.2109266909
1.1855682752
1.1926097005
1.1945193559
1.2120878130
1.2295356492
1.1694614330
1.1770250575
1.1821624504
1.0913940591
1.1900704242
1.1737990801
1.0992447671
1.1871697717
1.1779407014
1.2011575605
1.1957766059
1.1884347188
1.2385234735
1.0993778100
1.1768064376
1.1308690930
1.1619039146
1.2101437113
1.2044665457
1.1826272496
1.2059029501
1.0933716905
1.1559044921
1.0857448760
1.2442016204
1.1184740377
1.2053769713
1.1917030358
1.1840061124
1.1344939819
1.0822339280
1.2355913826
1.1020636222
1.2174476879
1.1284693424
1.1706059021
1.1946492601
1.2000090384
1.0742666348
1.0892466462
1.0574149447
1.0512837972
1.1552337126
1.0827562714
1.2404029910
1.1856296908
1.1930195516
1.2237782697
1.0463507234
1.1998724323
1.0285792906
1.1749227025
1.1777852443
1.1973139791
1.0859686098
1.0515602976
1.0533633213
1.0917904332
1.1914284832
1.2112517767
1.0355147514
1.1788759426
1.1865700886
1.0553413374
1.0453075091
1.1217669709
1.1144670606
1.1894814432
1.0932866244
1.1653629908
1.1753160896
1.0463496367
1.1425426248
1.1794674173
1.1020618454
1.1692504699
1.0892469463
1.1846591909
1.1743076319
1.0851102024
1.0920090870
1.1425461390
1.1799760829
1.1756480961
1.2286864036
1.0776692708
1.1908754378
1.0173884703
1.1800027085
1.1618712491
1.1353527287
1.1919058786
1.0857428441
1.1853747232
1.0761651127
1.0822332578
1.1205921473
1.0859685189
1.0917881429
1.0932876055
1.1618712171
1.1552379997
1.1008774084
1.0258564010
1.0894193969
1.0592435993
1.0830520869
1.0351446299
1.1284711096
1.0800040951
1.0181878781
1.2100100419
1.0404709991
1.0756717797
1.1518660480
1.0814703234
1.1623990409
1.1503013258
1.0159111151
1.2000024322
1.2090286606
1.1197740056
1.0196147430
1.2044694756
1.0827549679
1.1379430830
1.2121041521
1.1144667817
1.1917066301
1.1763439610
1.2385150281
1.1048959073
1.1763315361
1.1837934399
1.1778579383
1.1823373113
1.0758148924
1.1700013952
1.1732274268
1.1794691963
1.1176567769
1.0725076930
1.2011718042
1.1788775653
0.9985418813
1.1749231495
1.0641217651
1.2295284284
1.2064458804
1.1871720117
0.9963310429
1.2344769086
1.1185147046
1.0409771823
1.1376893442
1.0059829281
1.1768114266
1.1349390258
1.0811208086
1.1970929616
1.0949066275
1.1503403537
1.1001621643
1.1965076937
1.0655417139
1.1962951333
1.0231504562
1.0819356510
1.1878432526
1.2180130987
0.9806796786
1.0616469640
1.0671139502
1.1849881884
0.9921116170
1.1732278033
1.0630744901
1.1755761130
1.0761651902
1.1048955074
1.1353544811
1.0776681017
1.2138790368
1.1687207998
1.0704940174
1.0851102590
1.0842121475
0.9858072402
1.1815208285
1.0814702105
1.0126899743
1.0819353343
0.9910171454
1.0282440702
1.1503034933
1.0920075709
1.1197748271
1.0756713769
1.1779131650
1.1836260307
1.1771356228
1.1749837645
1.0894203897
1.0633026023
1.1017936250
1.1232852554
1.2002293723
1.1824091595
1.1518658356
1.0415709544
1.1908689055
0.9974117101
1.0746690123
1.0706068767
1.0586204284
1.0142613131
1.1056430131
1.1399439360
1.0830504639
1.1766529706
1.0646856873
1.0766995833
1.0613709890
1.1761936692
1.1795731674
1.1857796165
1.1758333263
0.9788524590
1.0887200569
1.0654088919
1.0589662720
1.1898637177
1.1901476580
1.1205911790
1.0454201011
1.1011035544
0.9998316708
1.1770024016
1.0011596344
1.0132712707
1.1842695271
1.1821089595
1.0735118900
1.0536663410
1.1776246900
1.0364596012
1.0259580118
0.9965884869
1.1788701750
1.1838118927
1.1801657534
1.0177098388
1.0044916409
0.9918577127
0.9915800370
0.9983378236
1.1789068459
1.1795885327
1.1785173150
1.1785244623
1.0051532914
1.1804608980
1.1813091162
0.9877078294
1.1836233094
1.1824729411
0.9806820819
1.1819862184
1.0404712581
1.1831871472
1.0060813815
1.0074835519
1.1823809106
0.9921139544
1.1821996530
1.1867043232
1.0196169473
1.1879273250
1.0086843335
0.9899955503
1.1873326825
1.1923031361
1.0433541215
1.1353249068
1.1373567201
1.1373222522
1.1352804279
1.1370768850
1.1399633258
1.1317834516
1.1319426906
1.1424255361
1.1418033505
1.1443613832
1.1423911758
1.1355626564
1.1291837132
1.1381364093
1.1265353606
1.1319257852
1.1370637278
1.1259542693
1.1235675944
1.1342497493
1.1431835074
1.1298723441
1.1269827769
1.1209716155
1.1400183482
1.1294018350
1.1156707298
1.1340074415
1.1241025102
1.1241405094
1.1263260090
1.1467560160
1.1189819787
1.1312819490
1.1265269587
1.1291207856
1.1259356270
1.1436060354
1.1224238473
1.1380653936
1.1234354106
1.1509230609
1.1533816431
1.1367426687
1.1184404682
1.1306251462
1.1586569155
1.1400132424
1.1209628512
1.1454347725
1.1290285531
1.1312060550
1.1467463859
1.1358162039
1.1771303546
1.1249211024
1.1561585939
1.1241148479
1.1475178680
1.1312254515
1.1289641130
1.1667833907
1.1752237582
1.1189673014
1.1534496112
1.1522609580
1.1384119219
1.1595755521
1.1494897852
1.1432131897
1.1572680326
1.1478648989
1.1277903545
1.1621330001
1.1209209412
1.1532965813
1.1668659682
1.1685920819
1.1234008608
1.1466911608
1.1771259821
1.2221693591
1.2187721543
1.1289095862
1.1561493701
1.1605032958
1.1667251551
1.1514238099
1.1478692666
1.1356700946
1.1728296418
1.1685478674
1.2242005752
1.2154770909
1.1690422623
1.1570442367
1.1553994731
1.1668408468
1.1846326440
1.1875728276
1.1440735108
1.1970865657
1.1859237488
1.1650744171
1.1350290030
1.1954284574
1.1435319372
1.1448702408
1.1621219826
1.2083811468
1.1685883784
1.1641718243
1.1896922042
1.1957567858
1.1999562355
1.1959320831
1.1477750425
1.1382307605
1.2019154275
1.1628829251
1.1209149648
1.1950913864
1.1604861423
1.1728201667
1.1694814427
1.1689936437
1.2099467589
1.1771514952
1.2141748070
1.2256767924
1.1528961508
1.2187860868
1.1544503525
1.1782298508
1.2069960236
1.1760958619
1.2221886350
1.2173795132
1.2083573639
1.2020643951
1.1381442328
1.2142565030
1.1999662343
1.1942851136
1.1845016080
1.1859204686
1.1558089711
1.1375508729
1.1846314311
1.1628802277
1.1741335940
1.1623196711
1.2012411183
1.1954264378
1.2083758072
1.1295474446
1.1807519458
1.1983514218
1.1434619585
1.1902638413
1.1875734762
1.1887007898
1.1650283756
1.1890491277
1.1447766699
1.2138687999
1.2099571714
1.1815889531
1.1638325634
1.1760787510
1.1464936332
1.1771438144
1.2207168616
1.2070384648
1.2189022852
1.2014337608
1.1715745636
1.2384251029
1.2093909629
1.1753598392
1.1559941692
1.2151007809
1.1737508740
1.1787438002
1.2142108472
1.2249291193
1.2019698405
1.1694251089
1.2450684744
1.1807258026
1.2057745392
1.2309617629
1.2142534010
1.1983563060
1.2203334769
1.1741226987
1.1620227656
1.2196484690
1.1845006029
1.2075724343
1.1374841614
1.2288176706
1.1557686674
1.2231419715
1.1826251758
1.2012414141
1.2189014132
1.2450360845
1.1875185356
1.2150932291
1.1711238464
1.1930907379
1.2067928479
1.1753564126
1.1185078192
1.1787337863
1.2014382053
1.1525258205
1.1617806114
1.2253159943
1.2418148787
1.2205265469
1.1917192257
1.1824291088
1.2070794127
1.1204232067
1.1987696575
1.1464354559
1.2288130978
1.1837023331
1.2154566310
1.1161055618
1.2338763879
1.2167826906
1.2287535468
1.2098685892
1.1799751909
1.2273514129
1.2409542430
1.2348791037
1.2265208028
1.2328038798
1.1885943949
1.2196925678
1.2008310578
1.2196919907
1.2441151720
1.1889678017
1.2414682114
1.2122578102
1.1875044361
1.1185088126
1.2068061052
1.2276225865
1.1232251616
1.2346282733
1.2101775215
1.1192278116
1.1901425456
1.1747568140
1.2085213141
1.1222999781
1.2163686944
1.1161080492
1.2409351501
1.2257073645
1.2303072414
1.1152296752
1.1885898186
1.2287534740
1.1979675549
1.1205109220
1.2154979233
1.2416039213
1.1201315606
1.2440178944
1.2167875984
1.2334389174
1.2327972515
1.1807773597
1.1217641996
1.1655882986
1.2054737172
1.2529912112
1.2414476224
1.2276314680
1.1125147012
1.2469396036
1.2381214910
1.2308851690
1.2070707411
1.2123164965
1.2510668325
1.1222471816
1.2348850746
1.2362479184
1.1248432460
1.1112011227
1.2520794225
1.2268136534
1.1152321606
1.1201336541
1.1132490429
1.1183118807
1.2163818908
1.2554874694
1.1217655349
1.1187129160
1.2549866697
1.2013907465
1.2085689255
1.1210290600
1.2427767365
1.1165976391
1.1197170335
1.1717236190
1.2370147281
1.1252545092
1.1113171155
1.2397036793
1.2534788568
1.1195892495
1.2568242001
1.2308766273
1.1124233311
1.2477495322
1.2530926975
1.1976510118
1.2380988625
1.2481393178
1.2488655108
1.2575620246
1.1268356608
1.1146247840
1.2314925674
1.1248416272
1.2055267563
1.1125219502
1.2529788097
1.1655653316
1.2348761226
1.2521324816
1.2405749126
1.2469257271
1.2555172018
1.1159400117
1.2567645635
1.1161037563
1.1927254524
1.1197195135
1.1187160687
1.2450452642
1.2555064323
1.2581205801
1.1204795560
1.2532269234
1.1136948502
1.1159147412
1.2549679850
1.1252532348
1.2014230887
1.1150674180
1.1178403522
1.2477945954
1.2396923331
1.1215002448
1.2367626296
1.1163558165
1.2554721898
1.1174528507
1.1187092379
1.2498304212
1.2564964625
1.1146296312
1.1891668970
1.2530764022
1.1235016784
1.1268347683
1.1976824826
1.1180345226
1.2481211766
1.2588858264
1.1173060866
1.2405648907
1.1338554464
1.1838463240
1.2597424716
1.1262942844
1.1174563991
1.2450169856
1.2505447215
1.1150709099
1.2581090693
1.2367532833
1.2508029030
1.1176152814
1.2554915916
1.1927358851
1.1181341903
1.2597353478
1.2448833976
1.1168012008
1.2479710775
1.1426635337
1.2546632494
1.1169916271
1.1807107495
1.2598141589
1.1183338998
1.1180265079
1.1281349964
1.2589235379
1.1891762711
1.1191953133
1.1183718977
1.1235022114
1.1522591291
1.2592027536
1.2598211504
1.1148606630
1.1176186519
1.1181374080
1.1175040379
1.2546437086
1.2507760747
1.1137144512
1.2477979641
1.1364005623
1.2448732730
1.2602131416
1.1838434408
1.1171536962
1.1175339989
1.2524176546
1.1122732339
1.1622391808
1.1457776686
1.2573869675
1.2598048080
1.1184272013
1.2591921373
1.2576685045
1.2587932500
1.1750890967
1.1178032879
1.2587908576
1.1718643312
1.1102484816
1.1099880264
1.1114875163
1.1073622106
1.1557805022
1.1175374552
1.1622129344
1.1158907148
1.1190429212
1.1094291071
1.1148650491
1.1451692722
1.1167252721
1.1159670099
1.2477599848
1.1129751048
1.1135627676
1.1079730461
1.1077085849
1.1556598766
1.1136250134
1.1087058939
1.1351664727
1.1171572088
1.1151049117
1.1137184055
1.2557473166
1.1658020531
1.1658183897
1.2576556402
1.2239175838
1.1263004235
1.2587820568
1.2096329867
1.1802790250
1.2531132812
1.2381579522
1.2473504708
1.1955114658
1.1716976349
1.2312263248
1.2579300212
1.2166389424
1.1880956850
1.2558194419
1.2442951716
1.2493205819
1.2026753616
1.1417727454
1.1058675754
1.1053363526
1.1146930864
1.1159353742
1.1443383399
1.1094336889
1.1622060186
1.1114925831
1.1134607814
1.1619831202
1.1028941389
1.1063181921
1.1158939752
1.1180405810
1.1089296096
1.1106108955
1.1118636560
1.1324083694
1.1036379869
1.1044742440
1.1159706092
1.1099052075
1.1335891995
1.1104835118
1.1519375203
1.1553362996
1.1032764469
1.1103900060
1.1135124257
1.1077129384
1.1092289288
1.1135664142
1.2202068148
1.1239442099
1.1655669874
1.1796165801
1.1935962865
1.2065297706
1.1912451441
1.2442506540
1.2518665783
1.2497238850
1.1750374473
1.2570939623
1.2435319440
1.2200514354
1.2339175747
1.1243706620
1.2557298798
1.2348665449
1.2060412079
1.2130207511
1.1713109116
1.1869020946
1.2000596218
1.2131684179
1.1833821324
1.2415608192
1.2473108004
1.2528401509
1.1658027007
1.2551284881
1.2455183300
1.2270738205
1.2401834801
1.2276067157
1.1988275839
1.1006773019
1.1004755223
1.1082770508
1.1134640219
1.1016310816
1.1067276145
1.1407121991
1.1618543267
1.0974595684
1.1619842296
1.1047919770
1.1120132796
1.1444358870
1.1149555139
1.1053389943
1.0982187858
1.0994373572
1.1103934685
1.1064794302
1.1051299414
1.1306525763
1.1560342091
1.0979778716
1.1514574280
1.1032785293
1.1052077221
1.1318404824
1.1099299862
1.1065666622
1.1787559952
1.2032719343
1.1916184196
1.2545712668
1.1747061831
1.2291079890
1.2167703168
1.1210000680
1.2308509590
1.2401453666
1.2390260111
1.2455090648
1.1656234518
1.1219203875
1.2032646824
1.1898509420
1.2157886658
1.2484069453
1.1855447583
1.1966344140
1.1974152617
1.2521215124
1.1655734166
1.2354003779
1.2099414583
1.2238085795
1.2375385306
1.2409572772
1.2489879372
1.1709149213
1.2093657313
1.1826666986
1.2224506731
1.2434899576
1.2228940897
1.1847429422
1.1621744185
1.2015175576
1.1018476318
1.1004761774
1.2278313646
1.2148325437
1.1071148423
1.1806288555
1.1437167716
1.1110239934
1.1953783517
1.2119747819
1.2246318452
1.1039589720
1.1395432879
1.1618627634
1.0907120772
1.0940936039
1.0997670860
1.1755974820
1.1715144848
1.1926056904
1.0960285873
1.1877560713
1.2045537856
1.0945813890
1.2215251682
1.1827471913
1.1558972299
1.1999057463
1.1000943442
1.1019347228
1.2319971191
1.2159558848
1.0992488298
1.1842732410
1.1308680224
1.1054000940
1.1966198556
1.2102742832
1.2286876298
1.1064823970
1.1284325018
1.1510991507
1.0915161066
1.0913959879
1.0979781194
1.1724635469
1.1744825231
1.1910886974
1.1017917657
1.1913981163
1.2096336623
1.0933717163
1.0779114755
1.2404215530
1.1660736102
1.2129206385
1.1382352170
1.2338074730
1.1998523609
1.2441951684
1.0574141101
1.0504630011
1.0483796996
1.2237678195
1.0285778203
1.1010947994
1.1777797513
1.2353779194
1.1741550557
1.1161333955
1.2263305906
1.1500883715
1.2511906386
1.1184761021
1.2112164603
1.1187964271
1.1883497236
1.2004385217
1.0610992447
1.1894798107
1.0553415580
1.2442172446
1.1705971117
1.2065482055
1.1503409567
1.2356095577
1.2053455852
1.2389942435
1.0653549399
1.0583275918
1.0330211457
1.2299515857
1.0339170635
1.1155991362
1.1840045543
1.2329295837
1.1656329413
1.0949077869
1.2195620502
1.1344950420
1.2483086347
1.2174201658
1.1817290790
1.1944591739
1.0742673529
1.1946409485
1.1779376936
1.1936919669
1.2099805064
1.2279266583
1.1743062925
1.1806318583
1.1799736799
1.1814966639
1.0956532830
1.2268678724
1.1868250644
1.2219940832
1.2268711278
1.1694343973
1.1060022621
1.2049099912
1.1847737812
1.1715161231
1.1869968245
1.1649810376
1.1767034200
1.0935963195
1.2159021286
1.2246294999
1.1992014094
1.1999987890
1.2048982805
1.1919026470
1.2380647401
1.0988173707
1.1735573426
1.2045598078
1.1383726225
1.1699552609
1.1698730804
1.2100079948
1.2090260122
1.1869992269
1.1853720629
1.2134575794
1.1953830892
1.2148343950
1.2017291449
1.0945810250
1.1621848293
1.1877587570
1.1953345232
1.2207140092
1.1805656600
1.1976143001
1.2159133902
1.2010851592
1.2333778951
1.1704730711
1.1763464043
1.1785484138
1.1839836394
1.0937995160
1.2278266000
1.1875639230
1.2239283111
1.1737043896
1.0996095233
1.2065944298
1.1896521674
1.1640098412
1.1640094539
1.1791857408
1.0915156307
1.2175038977
1.2199119714
1.2043883484
1.1989553168
1.1909555025
1.2417006799
1.1017940078
1.1793078399
1.1855655471
1.1997749876
1.1261488531
1.1649825653
1.2138772995
1.2081340159
1.1886434252
1.1844990677
1.2174522987
1.1914017216
1.2096391782
1.2024431661
1.0963959637
1.1506871422
1.1842761205
1.1968673445
1.0877226090
1.2469095336
1.1849854303
1.1965042699
1.2299437868
1.1149432196
1.0512845842
1.2087706606
1.0339180782
1.1763304550
1.1943542585
1.1866584199
1.1390049279
1.1970895613
1.0873161502
1.0504641132
1.0858748422
1.2391793343
1.0446878555
1.0997167585
1.1908655004
1.2213279369
1.0363597910
1.1784058554
1.1896758026
1.0779108600
1.0435530635
1.1345105575
1.1345094640
1.1230493142
1.1735856196
1.1974818993
1.2031686864
1.0834926078
1.1207446677
1.0926404556
1.0639906154
1.1699970497
1.1743830543
1.0428666541
1.0303336084
1.1500880422
1.0424852935
1.1814189308
1.0858083732
1.2436265196
1.1878401022
1.1958999939
1.2277276580
1.0522588310
1.2029655399
1.0330224505
1.1752617226
1.1805801653
1.1207433879
1.2002262749
1.0896658610
1.0583284447
1.0835207992
1.2337916295
1.0409767698
1.0922087007
1.1939669738
1.2149279549
1.0428679769
1.1801980236
1.1889774303
1.0663845964
1.0483801788
1.1155977941
1.0625616973
1.1102127009
1.1660816833
1.1921496730
1.2033260330
1.0610988230
1.0961885699
1.0653556616
1.0492922862
1.1614209311
1.1757049438
1.0576949874
1.0363582442
1.1368640412
1.1808768659
1.1351699191
1.0873157809
1.0997137471
1.1694348942
1.0926404864
1.1868276472
1.1694620051
1.1614269696
1.0805553689
1.1749579380
1.0113443261
1.0809361456
1.0395379735
1.2128060229
1.0956257381
1.1816126303
1.0347134525
1.1368680393
1.0953413566
1.1816154382
1.1910917807
1.1767050381
1.0219665423
1.2158958092
1.2319945896
1.1692501598
1.1724671054
1.2128079475
1.0523580293
1.0754580955
1.1936951336
1.2102851600
1.1619751388
1.0255837702
1.1779335670
1.0783819743
1.1814989250
1.1889181698
1.1632374520
1.1515108652
1.2109242025
1.1619252301
1.0070661100
1.2316541548
1.1984181287
1.1744844908
1.1947616884
1.2064426818
1.1411494055
1.0208047181
1.1947650962
1.2034609416
1.0877205757
1.1205045865
1.1875572186
1.0716625976
1.0858744765
1.2059023432
1.1176425672
1.0896654167
1.0922056654
1.1626996428
1.0961900854
1.1839860962
1.1632376127
1.1800007350
1.1500937415
1.0970956746
1.1770269958
1.0170591967
1.0858707181
1.0536663986
1.0839171662
1.0264214174
1.1230503142
1.0755487675
1.1787205776
1.1826297716
1.1738001716
1.0074815110
1.2248678635
1.1908723648
1.2134587963
1.0331808697
1.0719329095
1.1900733888
1.1511054751
1.0139764890
1.0770920306
1.1791878208
1.2064401751
1.1626995825
1.1620223179
1.1545112298
1.0060789636
1.1976177486
1.2059059143
1.1261903012
1.0103407089
1.1957799814
1.2017322272
1.0858074586
1.1360541284
1.1884374901
1.0735651993
1.0835204587
1.2159326142
1.1102110934