<VTKFile type="UnstructuredGrid" version="0.1">
	<UnstructuredGrid>
		<Piece NumberOfPoints="1862" NumberOfCells="3498">
			<CellData>
				<DataArray type="Int32" Name="type" NumberOfComponents="1" Format="ascii">
0
0
0
0
0
0
0
0
0
0
0
0
0
0
0
0
1
0
0
1
0
0
0
0
0
0
0
0
0
0
0
0
0
1
0
0
0
0
0
0
0
0
0
0
0
0
0
0
0
0
1
0
0
0
0
0
0
0
0
0
0
1
0
0
0
0
0
0
0
0
0
0
0
0
0
0
0
0
0
0
0
0
0
0
0
0
0
0
0
0
0
0
0
0
0
0
0
0
0
0
0
0
0
0
0
0
0
0
0
0
0
0
0
0
0
0
0
0
0
0
0
0
0
1
0
0
0
0
0
0
0
0
0
0
0
0
0
0
0
0
0
0
0
0
0
0
0
0
0
0
0
1
0
1
1
0
0
0
0
0
0
0
0
0
0
0
0
0
1
0
1
0
0
0
0
1
0
0
0
0
0
0
0
0
1
1
0
0
0
0
0
1
0
0
0
0
0
0
0
0
1
0
0
0
0
0
0
0
0
0
0
0
0
0
0
0
0
0
0
0
0
0
0
0
0
0
0
0
0
0
0
0
0
1
0
0
0
0
0
0
0
0
0
0
0
0
0
0
0
0
0
0
0
0
0
0
0
0
0
0
0
0
0
0
0
0
0
0
0
0
0
0
0
0
0
0
0
0
0
0
0
1
0
0
0
0
0
0
0
0
0
0
0
0
0
0
0
0
0
0
0
0
0
0
0
0
0
0
0
0
0
0
0
0
0
0
0
0
0
0
0
0
0
0
0
0
0
0
0
0
0
0
1
0
0
0
0
0
0
0
0
0
0
0
0
0
0
0
0
0
0
0
0
0
0
0
0
0
0
0
0
0
0
0
0
0
0
0
0
0
0
0
0
0
0
0
0
0
0
0
0
0
0
0
0
0
0
0
0
0
1
0
0
0
0
0
0
0
0
0
0
0
0
0
0
0
0
0
0
0
0
0
0
0
0
0
0
0
0
0
0
0
0
0
0
0
0
0
0
0
0
0
0
0
0
0
0
0
0
0
0
0
0
0
0
0
0
0
0
0
0
0
0
0
0
0
0
0
0
0
0
0
0
0
0
0
0
0
0
0
0
0
0
0
0
0
0
0
0
0
0
0
0
0
0
0
0
0
0
0
0
0
0
0
0
0
0
0
0
0
0
0
0
0
0
0
0
0
0
0
0
0
0
0
0
0
0
0
0
0
0
0
0
1
0
0
0
0
0
0
0
0
0
0
0
0
0
0
0
0
0
0
0
1
0
0
0
0
0
0
0
0
0
0
0
0
0
0
0
0
0
0
0
0
0
0
0
0
0
0
0
0
0
0
0
0
0
0
0
0
0
0
0
0
0
0
0
0
0
0
0
0
0
0
0
0
0
1
0
0
0
0
0
0
0
0
0
0
0
0
0
0
0
0
0
0
0
0
0
0
0
1
0
0
0
0
0
0
0
0
0
0
0
0
0
0
0
0
0
0
0
1
0
0
0
1
0
0
0
0
0
0
0
0
0
0
0
0
0
0
0
0
0
0
0
0
0
0
0
0
0
1
0
0
0
0
0
0
0
1
0
0
0
0
0
0
0
0
0
0
0
0
0
0
0
0
0
0
0
0
0
0
0
0
0
0
1
0
0
0
0
0
0
0
1
0
0
0
0
0
0
1
0
0
0
0
0
0
0
0
0
0
0
0
0
0
0
0
0
0
0
0
0
0
0
0
0
0
0
0
0
0
0
0
0
0
0
0
0
0
1
0
0
0
0
0
1
0
0
0
0
0
0
0
1
0
0
0
0
0
0
0
0
0
0
0
0
0
1
0
0
0
0
0
0
0
0
0
0
0
0
0
0
0
0
0
0
0
0
0
0
0
0
0
0
0
0
0
0
0
0
0
0
0
0
0
0
0
0
0
0
0
0
0
0
0
0
0
0
0
0
0
1
0
0
0
0
0
0
0
0
0
0
0
0
0
0
0
0
0
0
0
1
0
0
0
0
0
0
0
0
0
1
0
0
0
0
0
0
0
0
0
0
0
0
0
0
0
0
0
0
0
0
0
0
0
0
0
0
0
0
0
1
0
1
0
0
0
0
0
0
0
0
0
0
0
0
0
0
0
0
0
0
0
0
0
0
0
0
0
0
0
1
0
0
0
1
0
0
0
0
0
0
0
0
0
0
0
0
0
0
0
0
0
0
0
0
0
0
0
0
0
0
0
0
1
0
0
0
0
0
0
0
0
0
0
0
0
0
0
0
0
0
0
0
0
0
0
0
0
0
1
0
0
0
0
0
0
0
0
0
0
0
0
0
0
0
0
0
0
0
0
0
0
0
1
0
0
0
0
0
0
1
0
0
0
0
0
0
0
0
0
0
0
1
0
0
0
0
0
0
0
0
0
0
0
0
0
0
0
0
0
0
0
0
1
0
0
0
0
0
0
0
0
0
0
0
1
0
0
0
0
0
0
0
0
0
0
0
0
0
0
0
0
0
0
0
0
0
1
0
0
0
0
0
0
0
0
0
1
1
0
1
0
1
0
0
0
0
0
0
0
0
0
0
0
1
0
0
0
0
0
1
1
0
0
0
0
0
0
1
0
0
0
0
0
1
1
1
0
0
0
0
0
0
0
0
0
0
0
0
1
1
0
0
1
0
0
0
0
0
1
0
0
0
1
0
1
0
0
0
0
0
0
0
1
0
0
0
0
0
0
0
1
0
0
1
0
0
0
0
0
0
0
0
0
0
0
0
0
0
0
1
0
0
0
0
0
0
0
0
0
0
0
0
0
0
0
0
0
0
0
0
0
0
0
0
0
0
0
0
0
0
0
0
0
0
0
0
1
0
0
0
0
0
0
1
0
0
0
1
0
0
0
0
0
0
0
0
0
0
0
1
0
0
0
0
0
0
0
0
0
0
0
0
0
0
0
0
0
0
0
0
0
0
0
0
0
0
0
0
0
0
0
0
0
0
0
0
0
0
0
0
1
1
0
0
0
0
0
0
0
0
0
0
0
0
0
1
0
0
0
0
0
0
0
0
0
0
0
0
0
0
0
0
0
0
0
0
0
0
0
0
0
0
0
0
0
0
0
0
0
0
0
0
0
0
0
0
0
0
0
0
0
0
0
0
0
0
0
0
0
0
0
0
0
0
0
0
0
0
0
0
0
0
0
0
0
0
0
0
1
1
0
0
0
0
0
0
0
0
1
0
0
0
0
0
0
0
0
0
0
0
0
0
0
0
0
0
0
0
0
0
0
0
1
0
0
0
0
0
0
0
0
0
0
0
0
0
0
0
0
1
0
0
0
0
0
0
0
0
0
0
0
0
0
0
0
0
0
0
0
0
0
0
0
0
0
0
0
0
0
0
0
0
0
0
0
0
0
0
0
0
0
0
0
0
0
0
0
0
0
0
0
0
0
0
0
0
0
0
0
0
0
0
0
0
0
0
0
0
0
0
0
0
0
0
0
0
0
0
0
0
0
0
0
0
0
0
0
0
0
0
1
1
0
0
0
0
0
1
0
0
0
0
0
0
0
0
0
0
0
0
1
0
0
0
0
0
0
0
0
0
0
0
0
0
0
0
0
0
0
0
0
0
0
0
0
0
0
0
0
0
0
0
0
0
0
0
0
0
0
0
0
0
0
0
0
0
0
0
0
0
0
0
0
0
1
0
1
0
0
0
0
0
0
0
0
0
0
0
0
0
0
0
0
0
0
1
0
0
0
0
0
0
0
0
0
0
0
0
0
0
0
0
0
0
0
0
0
0
0
0
0
0
0
0
0
0
0
0
0
0
0
0
0
0
0
0
0
0
0
0
0
0
0
0
0
0
0
0
0
0
0
0
0
0
0
0
0
0
0
0
0
0
0
0
0
0
1
0
0
0
0
0
0
0
0
0
0
1
0
0
0
0
0
0
0
0
0
0
0
0
0
0
0
0
0
0
0
0
0
0
0
0
0
0
0
0
0
0
0
0
0
0
0
0
0
1
0
0
0
0
0
0
0
0
0
0
0
0
0
0
0
0
0
0
0
0
0
0
0
0
0
0
0
0
0
0
0
0
0
0
0
0
0
0
0
0
0
0
0
0
0
0
0
0
0
0
0
0
0
0
0
0
0
0
0
0
0
0
0
0
0
0
0
0
0
0
0
0
0
0
0
0
0
0
0
0
0
1
0
0
0
0
0
0
0
0
0
0
0
0
0
0
0
0
0
0
0
0
0
0
0
0
0
0
0
0
0
0
0
0
0
0
0
0
0
0
0
0
0
0
0
0
0
0
0
0
0
0
0
0
0
0
0
0
0
0
0
0
0
0
0
0
0
0
0
0
0
0
0
0
0
0
0
0
0
0
0
0
0
0
0
0
0
0
0
0
0
0
0
0
0
0
0
0
0
0
0
0
0
0
0
0
0
0
0
0
0
0
0
0
0
0
0
0
0
0
0
0
0
0
0
1
0
0
0
0
0
0
0
0
0
0
0
0
0
0
0
0
0
0
0
0
0
0
0
0
0
0
0
0
0
0
0
0
0
0
0
0
0
0
0
0
0
0
0
0
0
0
0
0
0
0
0
0
0
0
0
0
0
0
0
0
0
0
0
0
0
0
0
0
0
0
0
0
0
0
0
0
0
0
0
0
0
1
0
0
0
0
0
0
0
1
0
0
0
0
0
0
0
0
0
0
0
0
0
0
0
0
0
0
0
0
0
0
0
0
0
0
0
0
0
0
0
0
0
0
0
0
0
1
0
0
0
0
0
0
0
0
0
0
0
0
0
0
0
0
0
0
0
0
0
1
0
0
0
0
0
0
0
0
0
0
0
0
1
1
0
0
0
0
0
0
0
0
0
0
0
0
0
0
0
1
1
0
1
0
0
0
0
0
0
0
0
0
1
0
0
0
0
0
0
1
0
0
0
0
0
0
0
0
0
0
1
0
0
0
0
1
0
1
0
0
0
0
0
0
0
1
0
0
0
1
0
0
0
1
0
1
1
0
0
1
1
0
0
0
1
0
0
0
1
0
0
0
0
0
0
0
0
0
1
0
0
0
0
0
0
1
0
0
0
0
0
0
0
0
0
0
0
0
0
0
0
0
0
0
0
0
0
0
0
0
0
0
0
1
0
0
1
0
0
0
0
0
0
0
0
0
0
0
0
0
0
0
0
0
0
1
0
0
1
0
0
0
0
0
0
0
0
0
0
0
1
0
0
1
0
0
0
0
0
0
0
0
0
0
0
1
1
0
0
0
0
0
0
0
0
0
0
0
0
1
0
0
0
0
0
0
0
0
0
0
0
0
0
0
0
0
0
1
0
0
0
0
0
0
0
0
0
0
0
0
0
0
0
0
0
1
0
0
0
0
0
0
0
0
0
0
0
0
0
0
0
0
0
0
0
0
0
0
0
0
0
0
0
0
0
0
0
0
0
0
0
0
0
0
0
0
1
0
0
0
0
0
0
0
0
0
0
0
0
0
0
0
0
0
0
0
0
0
0
0
0
0
0
0
0
0
0
0
0
0
0
0
0
0
0
0
0
0
0
0
0
0
1
0
0
0
0
0
0
0
0
0
0
0
0
0
0
0
0
0
0
0
0
0
0
0
0
0
0
0
0
0
0
0
0
0
0
0
0
0
0
0
0
0
0
0
0
0
0
0
1
0
0
0
0
0
0
0
0
0
0
1
0
0
0
0
0
0
0
0
0
0
0
0
0
0
0
1
0
0
1
0
0
0
0
0
0
0
0
0
0
0
0
0
0
0
0
0
0
0
0
0
0
0
1
0
0
0
0
0
0
0
0
0
0
0
0
0
0
0
0
0
0
0
0
0
0
0
0
0
0
0
0
0
0
0
0
0
0
0
1
0
0
0
0
0
0
0
0
0
0
0
0
0
0
0
0
0
0
0
0
0
0
0
0
0
0
0
0
0
0
0
0
0
0
0
0
0
0
0
0
0
0
0
0
0
0
0
0
0
0
0
0
0
0
0
0
0
0
0
0
0
0
0
0
0
0
0
0
0
0
0
0
0
0
0
0
1
0
0
0
0
0
0
0
0
0
0
0
0
0
0
0
0
0
0
0
0
0
0
0
0
0
0
0
0
0
0
0
0
0
0
0
0
0
0
0
1
0
0
0
0
0
0
0
0
0
0
0
0
1
1
0
0
0
0
0
0
0
0
0
0
0
0
0
0
0
0
0
0
0
0
0
0
0
0
0
0
0
0
0
0
0
0
0
0
0
0
0
0
0
0
0
0
0
0
0
0
0
0
0
0
0
0
0
0
0
0
0
0
0
0
0
0
0
0
0
0
0
0
0
0
0
0
0
0
0
0
0
0
0
0
0
0
0
0
0
0
0
0
0
0
0
0
0
0
0
0
0
0
0
0
0
1
0
1
0
0
0
0
0
0
0
1
1
1
1
0
0
0
0
0
0
0
0
0
0
0
0
0
0
0
0
0
0
0
0
0
0
0
0
0
0
0
0
1
1
0
0
0
0
0
0
0
0
0
0
0
0
0
0
0
0
0
0
1
0
0
0
0
0
0
0
1
1
0
1
1
0
0
1
0
0
0
0
0
0
0
1
0
1
0
0
0
0
0
0
0
0
0
0
0
0
0
0
0
0
0
0
0
0
0
0
0
0
0
0
0
1
1
0
0
0
1
1
0
0
0
0
1
0
0
1
0
1
0
0
0
0
0
1
0
0
0
1
0
0
0
0
0
0
0
0
0
0
0
0
0
0
0
0
0
0
0
0
0
0
0
0
0
0
0
1
0
0
0
0
0
0
1
0
0
0
0
0
0
0
0
0
0
0
0
0
0
0
0
0
0
0
0
0
0
0
0
0
0
0
0
0
1
0
1
0
0
0
0
0
0
0
1
0
0
0
0
0
0
0
0
0
0
0
1
0
0
0
0
0
0
0
0
0
1
0
0
0
0
0
0
0
1
0
0
0
0
0
0
0
1
0
0
0
0
0
0
0
0
0
0
0
0
0
0
0
0
0
0
0
1
0
1
0
0
0
0
0
1
0
0
0
0
0
0
0
0
0
0
0
0
0
0
0
0
0
0
0
0
0
0
0
0
0
1
0
1
0
0
0
0
0
0
0
0
0
1
0
0
0
0
0
1
0
0
0
0
0
0
0
0
0
0
0
0
0
0
0
1
0
0
0
0
0
0
0
0
1
0
0
0
0
0
0
0
0
0
0
0
0
0
0
0
0
0
0
0
0
0
0
0
0
0
0
0
0
0
0
1
0
0
0
0
0
0
0
0
0
0
0
0
0
0
0
0
1
0
0
0
0
0
0
0
0
1
0
0
0
0
0
0
0
0
0
1
0
0
0
0
0
1
0
0
0
0
0
0
0
0
0
0
0
0
0
0
0
0
0
0
0
1
0
0
0
0
0
0
1
0
0
0
0
0
0
0
0
1
0
0
0
0
0
0
0
0
0
0
0
0
0
0
1
0
0
1
0
0
0
1
0
0
0
0
0
0
0
0
0
0
0
0
0
0
0
0
1
0
0
0
0
0
0
0
0
0
0
1
0
1
0
0
0
0
0
0
1
0
0
0
0
0
0
0
0
0
0
0
0
0
0
0
0
0
0
0
0
0
0
0
0
0
0
0
1
1
0
0
0
0
0
0
1
0
0
0
0
0
0
0
0
0
0
0
0
0
1
0
0
0
0
0
0
0
1
0
0
0
0
0
0
0
0
0
0
0
0
0
0
0
0
0
0
0
0
0
0
0
0
0
0
0
1
0
0
0
0
0
0
0
0
0
0
1
0
0
1
0
0
0
0
0
0
0
0
0
0
0
0
0
0
0
0
0
0
0
0
0
0
0
0
0
0
0
0
0
1
0
0
0
0
0
0
0
1
0
0
0
0
0
0
0
1
0
0
0
0
1
0
0
0
0
0
0
0
0
0
0
0
1
0
1
0
0
0
1
0
				</DataArray>
				<DataArray type="Float64" Name="h" NumberOfComponents="1" Format="ascii">
1.2477989502
1.2478096192
1.2477282664
1.2488423798
1.2471347847
1.2479170068
1.2478594205
1.2492981531
1.2486114020
1.2509758765
1.2495009058
1.2481593429
1.2477039648
1.2501463090
1.2487573307
1.2481551573
1.2487206404
1.2498999445
1.2473627988
1.2497335904
1.2479402972
1.2462360357
1.2456280377
1.2472060363
1.2492192364
1.2492472341
1.2431570823
1.2420238549
1.2458821620
1.2507250835
1.2503693582
1.2461573630
1.2456867180
1.2482164920
1.2474308893
1.2462257651
1.2477980936
1.2435469491
1.2405766498
1.2473581040
1.2462821227
1.2441810746
1.2439422833
1.2440936789
1.2465843711
1.2427736250
1.2442446179
1.2478721796
1.2518890129
1.2491596790
1.2479252868
1.2448068487
1.2448117363
1.2456277717
1.2456598332
1.2411519771
1.2439448273
1.2485228195
1.2481203146
1.2466772643
1.2505121034
1.2502036199
1.2515346502
1.2455151359
1.2425426596
1.2417778836
1.2464968614
1.2489385396
1.2497915620
1.2496336135
1.2483949297
1.2465501162
1.2407855633
1.2464204739
1.2473988110
1.2355578610
1.2481732124
1.2498954095
1.2480073606
1.2385559153
1.2521592823
1.2424820456
1.2579657057
1.2463572982
1.2368986830
1.2379804787
1.2530704774
1.2435288894
1.2495750437
1.2551507866
1.2528574642
1.2371691823
1.2507473136
1.2522407020
1.2404633826
1.2395267479
1.2410073069
1.2380476916
1.2396192665
1.2527373390
1.2565464657
1.2526190582
1.2429112902
1.2486084169
1.2526181928
1.2439761218
1.2378364571
1.2533607910
1.2493582062
1.2419124851
1.2507697811
1.2536746454
1.2516017018
1.2522819939
1.2451929654
1.2580536373
1.2442873725
1.2522773515
1.2554800723
1.2475196692
1.2524793837
1.2425872501
1.2348548100
1.2544531280
1.2509912852
1.2546928979
1.2464646877
1.2550488000
1.2573636552
1.2580864364
1.2556184129
1.2396351089
1.2487082707
1.2588694050
1.2522757797
1.2549149284
1.2505631442
1.2595897850
1.2545691168
1.2455195709
1.2556557755
1.2533922093
1.2568645109
1.2428248024
1.2368136046
1.2546811906
1.2479765559
1.2624908524
1.2539592452
1.2644204042
1.2512451438
1.2600521989
1.2607713016
1.2646369442
1.2535630983
1.2602905304
1.2627006719
1.2536934388
1.2640195121
1.2574947452
1.2434615287
1.2622661283
1.2485139627
1.2557457807
1.2545556929
1.2601114883
1.2400492967
1.2463227733
1.2559610542
1.2612377311
1.2619029998
1.2575186232
1.2639543693
1.2541899991
1.2377248494
1.2661063002
1.2405588241
1.2628398109
1.2653430400
1.2560551765
1.2596267498
1.2351362385
1.2576337253
1.2335235372
1.2576418142
1.2587984514
1.2374613016
1.2652226511
1.2567071418
1.2597344083
1.2328879054
1.2648950781
1.2587755198
1.2351757852
1.2659191163
1.2618014933
1.2549800178
1.2311465521
1.2332278303
1.2659267850
1.2597921852
1.2346299719
1.2591849984
1.2655912794
1.2300570617
1.2572178657
1.2455753873
1.2510014109
1.2318393525
1.2393633696
1.2307514155
1.2587688771
1.2560350590
1.2583673555
1.2484245167
1.2286894898
1.2425241674
1.2555147916
1.2333188252
1.2581978286
1.2310910414
1.2523915275
1.2362313419
1.2463289605
1.2335301929
1.2646789565
1.2582365265
1.2404086234
1.2296273959
1.2553838780
1.2653511223
1.2493497983
1.2371626294
1.2656991884
1.2630311065
1.2433465946
1.2281676173
1.2422854067
1.2591874187
1.2350756383
1.2253991063
1.2486005333
1.2557090711
1.2366935555
1.2491799204
1.2433118200
1.2565626842
1.2305894106
1.2456204033
1.2536699425
1.2387247475
1.2282105571
1.2544167698
1.2263946122
1.2232891117
1.2569751370
1.2400125587
1.2463786709
1.2583738211
1.2477397058
1.2315059607
1.2297503495
1.2376012731
1.2443322352
1.2347472599
1.2618299652
1.2636433155
1.2266648670
1.2651919669
1.2507939154
1.2568710058
1.2334953928
1.2538559460
1.2414555615
1.2446293751
1.2251677043
1.2338801279
1.2410159527
1.2475905808
1.2308889323
1.2567720650
1.2648079366
1.2637552886
1.2618631036
1.2539135359
1.2508211485
1.2382508564
1.2381333299
1.2547550934
1.2535893070
1.2395566052
1.2225316372
1.2454625933
1.2464726173
1.2298252208
1.2191189333
1.2319450305
1.2419904227
1.2512159688
1.2569807656
1.2549456589
1.2431688794
1.2250933589
1.2171104069
1.2208268246
1.2340225370
1.2220909589
1.2357576117
1.2522625904
1.2256075486
1.2388230105
1.2345111701
1.2641011406
1.2216988243
1.2551938540
1.2457325750
1.2257580308
1.2522424718
1.2622827662
1.2283105874
1.2419622350
1.2311362407
1.2488599272
1.2605398955
1.2303123656
1.2351445651
1.2383406153
1.2625635022
1.2423291047
1.2490418780
1.2552853188
1.2603878673
1.2635705647
1.2203132276
1.2454657989
1.2266759526
1.2521219972
1.2349470527
1.2562520314
1.2235813381
1.2121209356
1.2262233654
1.2523375906
1.2160846948
1.2415275797
1.2330898364
1.2429417420
1.2508209127
1.2493848282
1.2162879503
1.2104739168
1.2350231089
1.2391134892
1.2495117551
1.2513222414
1.2283702328
1.2191201291
1.2150756602
1.2305812293
1.2384512957
1.2426661765
1.2537976029
1.2549499115
1.2186624667
1.2146509435
1.2375238588
1.2041895685
1.2110016565
1.2264880898
1.2522546459
1.2281572835
1.2433203930
1.2481083154
1.2605997417
1.2433727709
1.2393059297
1.2589361410
1.2331535178
1.2531924219
1.2213018286
1.2164652604
1.2502821641
1.2626864277
1.2190251937
1.2465970848
1.2221451163
1.2272460630
1.2358701079
1.2312062655
1.1979851127
1.2620045456
1.2153899220
1.2397073549
1.1949286983
1.2585922588
1.2430250033
1.2286576719
1.2157062374
1.2097946268
1.1895349642
1.2265550245
1.2534664873
1.1902364451
1.2469020244
1.1911957095
1.2610539407
1.2500035036
1.2221636676
1.2317677393
1.1932254428
1.2354029018
1.2103684104
1.2417591242
1.2139579773
1.2294532013
1.2522125797
1.2488655720
1.2195750853
1.2389356565
1.2195014571
1.2033915688
1.1981858797
1.2386091122
1.2461676373
1.2518568234
1.2338507112
1.2570703750
1.2492682734
1.2398039232
1.2091592190
1.2216560169
1.2507251121
1.2322180683
1.2465522993
1.2238232061
1.2308966601
1.2375357363
1.2454255555
1.2547662914
1.2034702572
1.2127213089
1.2238950040
1.2342218154
1.2328974223
1.2092091639
1.2244779650
1.2247925971
1.2164047066
1.2379043552
1.2369658297
1.2296480465
1.2588828271
1.2522573188
1.2135702497
1.2115141442
1.1981857861
1.2477771825
1.2436034396
1.2217116099
1.2453149906
1.2460768628
1.2083018708
1.2231637453
1.2609460546
1.2151148602
1.2407322774
1.2295244060
1.2232690553
1.1900976081
1.2335148637
1.2570073686
1.2122563435
1.2479925399
1.2041630220
1.2114125180
1.2327163991
1.2427357757
1.1920564968
1.2455096529
1.2304180806
1.2260221331
1.2024653622
1.2285465185
1.2592200362
1.2324629154
1.2377441608
1.2513156265
1.2212487833
1.2368389468
1.2100772038
1.2131711008
1.2176534851
1.2415146400
1.2419335493
1.2286593198
1.2037279208
1.2176062801
1.2375551756
1.2444503076
1.2202406455
1.2243336871
1.2318229274
1.1967671982
1.2097953741
1.1895351106
1.2076004188
1.2282469125
1.2488756013
1.2042734521
1.2167870929
1.2212484020
1.2023827733
1.2225215000
1.2122587922
1.2043928258
1.2455096657
1.2274257079
1.2083275110
1.2432542511
1.2089830267
1.2023829562
1.2173588759
1.2129498948
1.2553257081
1.2206405908
1.2342568032
1.2153591402
1.2202262159
1.1990176812
1.1982763915
1.2333643324
1.2231675460
1.2257802939
1.2314043031
1.2335165710
1.1907896857
1.2419328898
1.2176097863
1.2488769682
1.1990177197
1.2024652712
1.1898583998
1.2022221944
1.2465583221
1.1935879775
1.2147353677
1.2223315235
1.2041638305
1.1910532731
1.2065495167
1.2476429340
1.1976574919
1.2262786076
1.1966840545
1.2398111774
1.2007612210
1.1984581002
1.2102165060
1.2403954316
1.2464652300
1.2001887903
1.2144227160
1.2435960729
1.2285495793
1.1931496992
1.2454271553
1.2076019401
1.2295220083
1.2188940661
1.2588740327
1.2039320550
1.2167368698
1.2287450444
1.2193047334
1.2194981915
1.2384799452
1.2071288178
1.2092868414
1.2225195091
1.1939805745
1.2076059997
1.2379062612
1.2243316161
1.2091992842
1.2133911594
1.2255251210
1.2547583051
1.2417617626
1.2247892364
1.2063331537
1.2570616140
1.1924254092
1.2023482686
1.1941012529
1.2064707469
1.2135681000
1.1931846149
1.2421048148
1.2413505209
1.1891107919
1.1939179715
1.1970110751
1.2404038427
1.2138707842
1.2338503056
1.2033510666
1.1947682416
1.2340666334
1.2488636965
1.1954122851
1.1974078931
1.2304305368
1.2312590394
1.2044469775
1.2092867333
1.2199713690
1.2194878817
1.2314072199
1.2039331789
1.1982771712
1.2206442439
1.2494767927
1.2051421769
1.2347049945
1.2432547527
1.2017783480
1.1999830325
1.2299825594
1.2398117142
1.2082207975
1.1947684428
1.2049698542
1.2062993758
1.1984586144
1.2089850316
1.2001896965
1.2262819688
1.2256666218
1.2320421509
1.2234721749
1.2169319879
1.2465598398
1.1989808439
1.1933363013
1.1923044107
1.2431468490
1.2283798310
1.1966841285
1.2006328779
1.2367322326
1.1974617075
1.2035387007
1.2359958203
1.2217752661
1.1897271922
1.1942146661
1.1927592742
1.2147386184
1.2234684575
1.2096251158
1.2400037628
1.2270391026
1.2211075794
1.2278433504
1.2339693455
1.2212126618
1.1916755960
1.1981668221
1.2317506671
1.2159629458
1.2369581281
1.2372719760
1.1907899381
1.2029773577
1.1919075547
1.2074139526
1.2251067395
1.2075105169
1.2076365115
1.2329044204
1.2312478194
1.1904933967
1.1943278425
1.2264812186
1.1992707689
1.2054863171
1.2038228949
1.2280916183
1.2326469080
1.2294456220
1.2032274430
1.2056023342
1.1989596466
1.2037538794
1.2069002007
1.2281221860
1.2290754931
1.2258024153
1.2270421123
1.1887389571
1.2299158633
1.2304492131
1.1980453364
1.2320461020
1.2304934645
1.1954131060
1.2308743809
1.1976581473
1.2320402989
1.2093556065
1.2063411098
1.2312023030
1.2044476004
1.2313199989
1.2348440317
1.2144229465
1.2357326909
1.2119272856
1.2081352713
1.2349948311
1.2385943302
1.2253240154
1.2472844743
1.2475085047
1.2475163620
1.2472927650
1.2486169958
1.2481543168
1.2494931380
1.2489522537
1.2471666345
1.2479107949
1.2471403125
1.2471749236
1.2486185664
1.2487478230
1.2478526787
1.2503134265
1.2489618418
1.2486234437
1.2492484100
1.2498912293
1.2488503186
1.2477333211
1.2473529399
1.2507172241
1.2486982999
1.2484173271
1.2493069434
1.2492429943
1.2492125016
1.2509847334
1.2479874557
1.2477153862
1.2478284337
1.2463350308
1.2460291880
1.2503224456
1.2503624053
1.2492588521
1.2482121271
1.2456746813
1.2461487354
1.2437083815
1.2473538790
1.2396188524
1.2487257891
1.2481640637
1.2439332760
1.2405719269
1.2484218819
1.2487071599
1.2462749704
1.2501544335
1.2497405228
1.2478332342
1.2456366098
1.2472537282
1.2462460274
1.2475290781
1.2479978526
1.2479447234
1.2460412144
1.2456349356
1.2424007054
1.2478698310
1.2463447620
1.2465807703
1.2479207970
1.2442363375
1.2420222679
1.2472107972
1.2458901543
1.2439431003
1.2401585351
1.2431703389
1.2471942502
1.2505796072
1.2396213204
1.2452149496
1.2480142506
1.2437210628
1.2448050828
1.2472549898
1.2505635590
1.2501761040
1.2456443312
1.2475331972
1.2469546649
1.2424015320
1.2462303898
1.2425385627
1.2435541317
1.2465748178
1.2474336881
1.2515358032
1.2489365621
1.2436311817
1.2478024178
1.2455125147
1.2452144597
1.2475512006
1.2473870361
1.2440993612
1.2464221679
1.2457534480
1.2465481676
1.2407730842
1.2491441882
1.2386633952
1.2416568468
1.2471974532
1.2509877356
1.2480181102
1.2441829470
1.2481721818
1.2483943168
1.2474690803
1.2473993894
1.2401645044
1.2418116786
1.2497902274
1.2478621120
1.2505882235
1.2496311041
1.2469579291
1.2465753815
1.2404806243
1.2436295685
1.2476732738
1.2464254361
1.2478526400
1.2518874577
1.2448116550
1.2501773954
1.2427764471
1.2424872063
1.2463537765
1.2441114329
1.2505654713
1.2491636047
1.2505130412
1.2502056243
1.2418180453
1.2512983963
1.2474681754
1.2481208070
1.2468170372
1.2457499119
1.2350568397
1.2388410209
1.2475518879
1.2478661579
1.2454981891
1.2456614150
1.2493837113
1.2491455829
1.2509897077
1.2411644998
1.2437331216
1.2481269875
1.2386762305
1.2456216251
1.2473869704
1.2466749726
1.2371634439
1.2485245365
1.2416611384
1.2507472407
1.2476720085
1.2486052805
1.2396159173
1.2441056617
1.2368069306
1.2464241492
1.2526180457
1.2453922297
1.2516936419
1.2452418394
1.2417772467
1.2565575375
1.2465048132
1.2481233433
1.2380440875
1.2517268578
1.2395246430
1.2451932172
1.2478624866
1.2527380354
1.2439653766
1.2404833604
1.2593151118
1.2437256626
1.2493583014
1.2536796470
1.2512994699
1.2481272128
1.2516008999
1.2454954618
1.2355680769
1.2493201923
1.2468159038
1.2498959873
1.2388524800
1.2533716289
1.2350659282
1.2507651314
1.2419170366
1.2493842781
1.2516939009
1.2593021126
1.2444775580
1.2517280640
1.2379868497
1.2425851074
1.2484934549
1.2481266140
1.2518430503
1.2451881921
1.2452408722
1.2369089716
1.2385609524
1.2530703905
1.2579501042
1.2521594140
1.2442936139
1.2480092605
1.2454077791
1.2524724592
1.2435347500
1.2368176163
1.2533703253
1.2396319486
1.2479003177
1.2514325665
1.2546984848
1.2505837529
1.2532488391
1.2495743969
1.2404637123
1.2522420476
1.2568925653
1.2551411918
1.2528557546
1.2542207322
1.2489844960
1.2509895087
1.2464679264
1.2493340529
1.2580916669
1.2429093398
1.2574600021
1.2464858455
1.2444713578
1.2518492587
1.2484916369
1.2527316101
1.2522692459
1.2549182940
1.2487103908
1.2526245926
1.2410145930
1.2368050853
1.2451018385
1.2533862385
1.2498645285
1.2514373255
1.2568861631
1.2522807327
1.2533554219
1.2502622757
1.2489870868
1.2532479189
1.2451900090
1.2539534854
1.2479148659
1.2568679890
1.2550376470
1.2580487960
1.2505836289
1.2546835622
1.2542164216
1.2378449572
1.2534754412
1.2339841337
1.2437584366
1.2609213355
1.2574526314
1.2527309793
1.2527662297
1.2585803074
1.2561469963
1.2541579332
1.2475166574
1.2465095613
1.2600543385
1.2522838918
1.2551466964
1.2554765448
1.2517265840
1.2512433776
1.2607750922
1.2535629216
1.2502677564
1.2550434077
1.2463190163
1.2545506276
1.2498654154
1.2631263720
1.2534811233
1.2554561805
1.2635765538
1.2429202191
1.2451236541
1.2544590002
1.2573611514
1.2434539291
1.2537299653
1.2348647201
1.2556158043
1.2517686947
1.2485110663
1.2563116521
1.2622724905
1.2550542596
1.2640235676
1.2541569827
1.2505690371
1.2588671643
1.2615659828
1.2410190492
1.2561374654
1.2593114052
1.2595858951
1.2639569844
1.2511473115
1.2529644904
1.2545688348
1.2517334164
1.2437833921
1.2527677650
1.2609182639
1.2339930984
1.2551452069
1.2612438051
1.2566975344
1.2585774268
1.2619056102
1.2541868501
1.2644160622
1.2576284059
1.2401940189
1.2537359323
1.2554612379
1.2588672336
1.2627060593
1.2644895246
1.2428355584
1.2624837988
1.2479802092
1.2560511863
1.2635701786
1.2517750191
1.2429367973
1.2570677181
1.2556605534
1.2596343167
1.2563096963
1.2405485806
1.2556399240
1.2455273920
1.2631215703
1.2568583809
1.2567014607
1.2602841206
1.2626973964
1.2529649792
1.2379771594
1.2615614318
1.2527676117
1.2511537101
1.2410371207
1.2576352652
1.2593061560
1.2646355187
1.2536968511
1.2566961771
1.2374468534
1.2368465034
1.2659207833
1.2400620361
1.2568635907
1.2588566937
1.2618127689
1.2570720395
1.2644864576
1.2556391621
1.2613833010
1.2579297168
1.2627017984
1.2402077348
1.2563302697
1.2648968703
1.2578550786
1.2557497994
1.2601029573
1.2351611167
1.2638905111
1.2575002023
1.2346187373
1.2662195351
1.2575247873
1.2591785353
1.2377367817
1.2655940273
1.2379929896
1.2559668971
1.2597853155
1.2527734583
1.2332154433
1.2662043624
1.2653411548
1.2553581658
1.2579356427
1.2563356934
1.2587625994
1.2638836377
1.2613737842
1.2567991226
1.2605672015
1.2351489100
1.2578534985
1.2661049574
1.2368584124
1.2595569626
1.2596043004
1.2628287822
1.2560318374
1.2318300800
1.2329002784
1.2653549137
1.2662177728
1.2597412650
1.2662020129
1.2651428222
1.2661827775
1.2335340619
1.2588048075
1.2652197864
1.2310838835
1.2565584674
1.2433095680
1.2538315211
1.2491814900
1.2311568937
1.2596111758
1.2273116428
1.2584747060
1.2366832575
1.2534105399
1.2553605490
1.2281569982
1.2587817246
1.2592767324
1.2605518713
1.2549827999
1.2586353815
1.2463789819
1.2519117169
1.2263880864
1.2400060897
1.2544150506
1.2305765172
1.2595638864
1.2591805907
1.2568035709
1.2646314895
1.2253913367
1.2300649882
1.2651386189
1.2508079982
1.2334827410
1.2661802754
1.2445971914
1.2308841712
1.2637653725
1.2567863328
1.2608300859
1.2382287677
1.2266662608
1.2538582400
1.2659231934
1.2477132315
1.2347339156
1.2651974377
1.2594855146
1.2618460871
1.2414264026
1.2307653026
1.2395556194
1.2512803869
1.2582035472
1.2319359975
1.2225259688
1.2534112395
1.2273184423
1.2538328764
1.2577816378
1.2220483691
1.2464764169
1.2547521995
1.2584805029
1.2393736214
1.2510015369
1.2455777457
1.2572227646
1.2333340247
1.2431712062
1.2522626718
1.2592835813
1.2357522361
1.2250837707
1.2555177018
1.2286996926
1.2208261216
1.2494962070
1.2575090082
1.2425305412
1.2519113132
1.2484255688
1.2586419706
1.2493663822
1.2282998778
1.2200990139
1.2266809662
1.2351299247
1.2422966499
1.2371807909
1.2594666566
1.2630198134
1.2625766114
1.2296322965
1.2656951600
1.2595607150
1.2490197219
1.2552928382
1.2362449596
1.2646249737
1.2553743658
1.2433744523
1.2463558516
1.2217073486
1.2311329387
1.2387973240
1.2457009910
1.2335407749
1.2582198061
1.2608134902
1.2641090595
1.2253940787
1.2646734896
1.2605576514
1.2522352894
1.2581006511
1.2523943471
1.2404318981
1.2349462165
1.2485195506
1.2557128360
1.2577867606
1.2523361402
1.2422859781
1.2254088755
1.2162313147
1.2429460406
1.2220485240
1.2485979560
1.2262168720
1.2160833156
1.2350845797
1.2512790108
1.2391159101
1.2495133335
1.2575150236
1.2557812820
1.2456184990
1.2282229955
1.2146532078
1.2464021970
1.2232940344
1.2494934213
1.2305770153
1.2186574521
1.2387294532
1.2536710363
1.2221724495
1.2410458883
1.2317644974
1.2648021868
1.2251634320
1.2534673794
1.2476174040
1.2221382072
1.2539116641
1.2580840873
1.2579847934
1.2610673294
1.2144580799
1.2315179343
1.2396846971
1.2338919584
1.2468800107
1.2618476576
1.2272511476
1.2376234975
1.2358563033
1.2636347299
1.2200955195
1.2563915220
1.2443650012
1.2508073957
1.2568571477
1.2589510708
1.2626961586
1.2164728482
1.2433467627
1.2297524292
1.2502704263
1.2595421515
1.2522188824
1.2216588231
1.2102729846
1.2389383345
1.2381330463
1.2485164685
1.2545997979
1.2485823792
1.2195710583
1.2166091489
1.2091590256
1.2298317281
1.2346430294
1.2461711857
1.2536154194
1.2535917756
1.2191236308
1.2162287476
1.2386112018
1.2294509035
1.2454584840
1.2103693499
1.2052884276
1.2309002879
1.2492679477
1.2263756656
1.2420759245
1.2450426587
1.2513481264
1.2193997149
1.2083029367
1.2375070177
1.2419873774
1.2512154797
1.2564849449
1.2494357846
1.2244742936
1.2217347944
1.2115121167
1.2340258631
1.2360995073
1.2449124011
1.2553334789
1.2557863919
1.2220986984
1.2171107620
1.2425549128
1.2342217212
1.2463982759
1.2073338745
1.2084614506
1.2292471572
1.2533935616
1.2306407817
1.2454747715
1.2460787959
1.1958417420
1.2592312191
1.2089609624
1.2454939994
1.1918095455
1.2560866391
1.2368299308
1.2603718282
1.2304162316
1.2274269452
1.2134407759
1.2513146429
1.2100768222
1.1889275024
1.2176593831
1.2563806966
1.2203044426
1.1898605362
1.2521278735
1.1934399824
1.2635631442
1.2151113888
1.2444368738
1.2257662905
1.2303136312
1.2383634243
1.1945686662
1.2282499994
1.1967664712
1.2609559350
1.2114150842
1.2419913727
1.1939178663
1.2570179464
1.2407188983
1.2579697579
1.2345882592
1.2313738462
1.2135585463
1.2543545235
1.2082747340
1.1882453292
1.2232749291
1.2551867946
1.2144540198
1.1891103573
1.2488793038
1.1900973571
1.2622714414
1.2479839257
1.2256012148
1.2345234111
1.1920559455
1.2327138661
1.2136004504
1.2363162781
1.2440546416
1.2538673965
1.2083278262
1.2166079635
1.2173600775
1.2219058963
1.2330907790
1.2540274345
1.2293623113
1.2508769058
1.2540349577
1.2044187900
1.2235855037
1.2413060334
1.2228194965
1.2052882917
1.2245916744
1.2010581441
1.2136756229
1.2415243536
1.2482790744
1.2536069761
1.2364485675
1.2404019750
1.2413067357
1.2333696509
1.2585882737
1.2508221986
1.2108833463
1.2420709909
1.2121227503
1.2041893839
1.2033920284
1.2476514150
1.2464727469
1.2245878529
1.2257835104
1.2489161219
1.2346387850
1.2485752743
1.2425996118
1.2450393964
1.2102728793
1.2263724317
1.2335077474
1.2518647315
1.2162869431
1.2395744586
1.2475825741
1.2398096500
1.2564710022
1.2046307587
1.2110008916
1.2146721756
1.2257114450
1.2375223911
1.2545911067
1.2308815193
1.2520068985
1.2086908441
1.2283732070
1.2426629618
1.2278300949
1.1998262250
1.1998262771
1.2178963752
1.2425519325
1.2493785477
1.2513157727
1.2403415024
1.2391715386
1.2318824227
1.2601065488
1.2533974793
1.2171630489
1.2238258463
1.2384471808
1.2150793928
1.2010583316
1.2494854654
1.2456348227
1.2264853300
1.2238828554
1.2508691929
1.2306365903
1.2454699319
1.2434273107
1.2481068902
1.2104737919
1.2217320029
1.2350201013
1.2271934947
1.2619961282
1.2312635289
1.2404110411
1.2543481707
1.2190296997
1.2260233247
1.2430451408
1.2082751695
1.2167376027
1.2323194298
1.2265497163
1.1911958162
1.2413581964
1.2408222201
1.2274284601
1.2368121648
1.2585794076
1.1996037467
1.2164952966
1.2367384834
1.2500115746
1.2188673948
1.2225488423
1.2348473627
1.1958425405
1.2157065276
1.1903936936
1.1903938398
1.2075406054
1.2153835211
1.2354131329
1.2444894321
1.1932259783
1.1892536334
1.2473792175
1.2331553014
1.2071299199
1.2132300057
1.2233958349
1.2150433256
1.2039811819
1.2244867249
1.2256481627
1.2322432836
1.2605879528
1.2340720313
1.2395902251
1.2531905619
1.2246580640
1.2393234387
1.2135591732
1.2132536772
1.2212938509
1.1892538984
1.2431551381
1.2443048333
1.2313754169
1.2379703452
1.2560772336
1.2023475598
1.2218455005
1.2391872046
1.2466136127
1.2233968067
1.2254752824
1.2336380235
1.1979861636
1.2134411938
1.1882456490
1.2013052917
1.2115621532
1.2089601801
1.2312076867
1.2446192350
1.1945693226
1.2503231715
1.2345898468
1.2191708972
1.2048141433
1.2166117676
1.2291482796
1.2188667977
1.2049058027
1.2238855092
1.1914278700
1.2408209737
1.2164980758
1.2044186664
1.2473797121
1.2293579373
1.2034701349
1.2048148347
1.1927680803
1.2098943731
1.2051988269
1.2410650226
1.1983247581
1.2483890877
1.2048337016
1.2194639315
1.2214594484
1.2049069163
1.1887094208
1.2194625363
1.2292435013
1.2136749585
1.2043935794
1.2482829074
1.2564770808
1.2043928780
1.2073339930
1.2483811966
1.1946626358
1.2163742988
1.2363100309
1.2449116596
1.2002829667
1.2183105048
1.2136015229
1.2359048072
1.2219037562
1.2281536881
1.1995369633
1.1969737385
1.2465591310
1.2006034895
1.2087932299
1.2562437389
1.2406174821
1.2084607645
1.2356060216
1.2458302071
1.1966259903
1.2134748767
1.2356001532
1.2425311264
1.2271967459
1.1923019340
1.2279899166
1.2277991607
1.2368123944
1.2433140745
1.1909053468
1.2443036931
1.2218488869
1.2001947487
1.2503257823
1.2257082156
1.1995369500
1.2202279934
1.2039817336
1.1903588243
1.2127207327
1.2027874464
1.2447873155
1.1943272587
1.2103871227
1.2189285449
1.2075422839
1.1915804949
1.2139591349
1.2217095954
1.2092088484
1.2063408718
1.2537890742
1.2342624286
1.2489075640
1.1987996448
1.2222995649
1.2328920966
1.1967394118
1.2156257926
1.2371181773
1.2178951125
1.2458385207
1.2001947414
1.2008783200
1.1979595935
1.2093554787
1.2395677348
1.2453072640
1.1974356450
1.2123139704
1.2369596531
1.2425920851
1.2322453579
1.1932197283
1.2296437053
1.2327321180
1.2379704768
1.2475866409
1.2115643097