<VTKFile type="UnstructuredGrid" version="0.1">
	<UnstructuredGrid>
		<Piece NumberOfPoints="1862" NumberOfCells="3498">
			<CellData>
				<DataArray type="Int32" Name="type" NumberOfComponents="1" Format="ascii">
0
0
0
0
0
0
0
0
0
0
0
0
0
0
0
0
1
0
0
1
0
0
0
0
0
0
0
0
0
0
0
0
0
1
0
0
0
0
0
0
0
0
0
0
0
0
0
0
0
0
1
0
0
0
0
0
0
0
0
0
0
1
0
0
0
0
0
0
0
0
0
0
0
0
0
0
0
0
0
0
0
0
0
0
0
0
0
0
0
0
0
0
0
0
0
0
0
0
0
0
0
0
0
0
0
0
0
0
0
0
0
0
0
0
0
0
0
0
0
0
0
0
0
1
0
0
0
0
0
0
0
0
0
0
0
0
0
0
0
0
0
0
0
0
0
0
0
0
0
0
0
1
0
1
1
0
0
0
0
0
0
0
0
0
0
0
0
0
1
0
1
0
0
0
0
1
0
0
0
0
0
0
0
0
1
1
0
0
0
0
0
1
0
0
0
0
0
0
0
0
1
0
0
0
0
0
0
0
0
0
0
0
0
0
0
0
0
0
0
0
0
0
0
0
0
0
0
0
0
0
0
0
0
1
0
0
0
0
0
0
0
0
0
0
0
0
0
0
0
0
0
0
0
0
0
0
0
0
0
0
0
0
0
0
0
0
0
0
0
0
0
0
0
0
0
0
0
0
0
0
0
1
0
0
0
0
0
0
0
0
0
0
0
0
0
0
0
0
0
0
0
0
0
0
0
0
0
0
0
0
0
0
0
0
0
0
0
0
0
0
0
0
0
0
0
0
0
0
0
0
0
0
1
0
0
0
0
0
0
0
0
0
0
0
0
0
0
0
0
0
0
0
0
0
0
0
0
0
0
0
0
0
0
0
0
0
0
0
0
0
0
0
0
0
0
0
0
0
0
0
0
0
0
0
0
0
0
0
0
0
1
0
0
0
0
0
0
0
0
0
0
0
0
0
0
0
0
0
0
0
0
0
0
0
0
0
0
0
0
0
0
0
0
0
0
0
0
0
0
0
0
0
0
0
0
0
0
0
0
0
0
0
0
0
0
0
0
0
0
0
0
0
0
0
0
0
0
0
0
0
0
0
0
0
0
0
0
0
0
0
0
0
0
0
0
0
0
0
0
0
0
0
0
0
0
0
0
0
0
0
0
0
0
0
0
0
0
0
0
0
0
0
0
0
0
0
0
0
0
0
0
0
0
0
0
0
0
0
0
0
0
0
0
1
0
0
0
0
0
0
0
0
0
0
0
0
0
0
0
0
0
0
0
1
0
0
0
0
0
0
0
0
0
0
0
0
0
0
0
0
0
0
0
0
0
0
0
0
0
0
0
0
0
0
0
0
0
0
0
0
0
0
0
0
0
0
0
0
0
0
0
0
0
0
0
0
0
1
0
0
0
0
0
0
0
0
0
0
0
0
0
0
0
0
0
0
0
0
0
0
0
1
0
0
0
0
0
0
0
0
0
0
0
0
0
0
0
0
0
0
0
1
0
0
0
1
0
0
0
0
0
0
0
0
0
0
0
0
0
0
0
0
0
0
0
0
0
0
0
0
0
1
0
0
0
0
0
0
0
1
0
0
0
0
0
0
0
0
0
0
0
0
0
0
0
0
0
0
0
0
0
0
0
0
0
0
1
0
0
0
0
0
0
0
1
0
0
0
0
0
0
1
0
0
0
0
0
0
0
0
0
0
0
0
0
0
0
0
0
0
0
0
0
0
0
0
0
0
0
0
0
0
0
0
0
0
0
0
0
0
1
0
0
0
0
0
1
0
0
0
0
0
0
0
1
0
0
0
0
0
0
0
0
0
0
0
0
0
1
0
0
0
0
0
0
0
0
0
0
0
0
0
0
0
0
0
0
0
0
0
0
0
0
0
0
0
0
0
0
0
0
0
0
0
0
0
0
0
0
0
0
0
0
0
0
0
0
0
0
0
0
0
1
0
0
0
0
0
0
0
0
0
0
0
0
0
0
0
0
0
0
0
1
0
0
0
0
0
0
0
0
0
1
0
0
0
0
0
0
0
0
0
0
0
0
0
0
0
0
0
0
0
0
0
0
0
0
0
0
0
0
0
1
0
1
0
0
0
0
0
0
0
0
0
0
0
0
0
0
0
0
0
0
0
0
0
0
0
0
0
0
0
1
0
0
0
1
0
0
0
0
0
0
0
0
0
0
0
0
0
0
0
0
0
0
0
0
0
0
0
0
0
0
0
0
1
0
0
0
0
0
0
0
0
0
0
0
0
0
0
0
0
0
0
0
0
0
0
0
0
0
1
0
0
0
0
0
0
0
0
0
0
0
0
0
0
0
0
0
0
0
0
0
0
0
1
0
0
0
0
0
0
1
0
0
0
0
0
0
0
0
0
0
0
1
0
0
0
0
0
0
0
0
0
0
0
0
0
0
0
0
0
0
0
0
1
0
0
0
0
0
0
0
0
0
0
0
1
0
0
0
0
0
0
0
0
0
0
0
0
0
0
0
0
0
0
0
0
0
1
0
0
0
0
0
0
0
0
0
1
1
0
1
0
1
0
0
0
0
0
0
0
0
0
0
0
1
0
0
0
0
0
1
1
0
0
0
0
0
0
1
0
0
0
0
0
1
1
1
0
0
0
0
0
0
0
0
0
0
0
0
1
1
0
0
1
0
0
0
0
0
1
0
0
0
1
0
1
0
0
0
0
0
0
0
1
0
0
0
0
0
0
0
1
0
0
1
0
0
0
0
0
0
0
0
0
0
0
0
0
0
0
1
0
0
0
0
0
0
0
0
0
0
0
0
0
0
0
0
0
0
0
0
0
0
0
0
0
0
0
0
0
0
0
0
0
0
0
0
1
0
0
0
0
0
0
1
0
0
0
1
0
0
0
0
0
0
0
0
0
0
0
1
0
0
0
0
0
0
0
0
0
0
0
0
0
0
0
0
0
0
0
0
0
0
0
0
0
0
0
0
0
0
0
0
0
0
0
0
0
0
0
0
1
1
0
0
0
0
0
0
0
0
0
0
0
0
0
1
0
0
0
0
0
0
0
0
0
0
0
0
0
0
0
0
0
0
0
0
0
0
0
0
0
0
0
0
0
0
0
0
0
0
0
0
0
0
0
0
0
0
0
0
0
0
0
0
0
0
0
0
0
0
0
0
0
0
0
0
0
0
0
0
0
0
0
0
0
0
0
0
1
1
0
0
0
0
0
0
0
0
1
0
0
0
0
0
0
0
0
0
0
0
0
0
0
0
0
0
0
0
0
0
0
0
1
0
0
0
0
0
0
0
0
0
0
0
0
0
0
0
0
1
0
0
0
0
0
0
0
0
0
0
0
0
0
0
0
0
0
0
0
0
0
0
0
0
0
0
0
0
0
0
0
0
0
0
0
0
0
0
0
0
0
0
0
0
0
0
0
0
0
0
0
0
0
0
0
0
0
0
0
0
0
0
0
0
0
0
0
0
0
0
0
0
0
0
0
0
0
0
0
0
0
0
0
0
0
0
0
0
0
0
1
1
0
0
0
0
0
1
0
0
0
0
0
0
0
0
0
0
0
0
1
0
0
0
0
0
0
0
0
0
0
0
0
0
0
0
0
0
0
0
0
0
0
0
0
0
0
0
0
0
0
0
0
0
0
0
0
0
0
0
0
0
0
0
0
0
0
0
0
0
0
0
0
0
1
0
1
0
0
0
0
0
0
0
0
0
0
0
0
0
0
0
0
0
0
1
0
0
0
0
0
0
0
0
0
0
0
0
0
0
0
0
0
0
0
0
0
0
0
0
0
0
0
0
0
0
0
0
0
0
0
0
0
0
0
0
0
0
0
0
0
0
0
0
0
0
0
0
0
0
0
0
0
0
0
0
0
0
0
0
0
0
0
0
0
0
1
0
0
0
0
0
0
0
0
0
0
1
0
0
0
0
0
0
0
0
0
0
0
0
0
0
0
0
0
0
0
0
0
0
0
0
0
0
0
0
0
0
0
0
0
0
0
0
0
1
0
0
0
0
0
0
0
0
0
0
0
0
0
0
0
0
0
0
0
0
0
0
0
0
0
0
0
0
0
0
0
0
0
0
0
0
0
0
0
0
0
0
0
0
0
0
0
0
0
0
0
0
0
0
0
0
0
0
0
0
0
0
0
0
0
0
0
0
0
0
0
0
0
0
0
0
0
0
0
0
0
1
0
0
0
0
0
0
0
0
0
0
0
0
0
0
0
0
0
0
0
0
0
0
0
0
0
0
0
0
0
0
0
0
0
0
0
0
0
0
0
0
0
0
0
0
0
0
0
0
0
0
0
0
0
0
0
0
0
0
0
0
0
0
0
0
0
0
0
0
0
0
0
0
0
0
0
0
0
0
0
0
0
0
0
0
0
0
0
0
0
0
0
0
0
0
0
0
0
0
0
0
0
0
0
0
0
0
0
0
0
0
0
0
0
0
0
0
0
0
0
0
0
0
0
1
0
0
0
0
0
0
0
0
0
0
0
0
0
0
0
0
0
0
0
0
0
0
0
0
0
0
0
0
0
0
0
0
0
0
0
0
0
0
0
0
0
0
0
0
0
0
0
0
0
0
0
0
0
0
0
0
0
0
0
0
0
0
0
0
0
0
0
0
0
0
0
0
0
0
0
0
0
0
0
0
0
1
0
0
0
0
0
0
0
1
0
0
0
0
0
0
0
0
0
0
0
0
0
0
0
0
0
0
0
0
0
0
0
0
0
0
0
0
0
0
0
0
0
0
0
0
0
1
0
0
0
0
0
0
0
0
0
0
0
0
0
0
0
0
0
0
0
0
0
1
0
0
0
0
0
0
0
0
0
0
0
0
1
1
0
0
0
0
0
0
0
0
0
0
0
0
0
0
0
1
1
0
1
0
0
0
0
0
0
0
0
0
1
0
0
0
0
0
0
1
0
0
0
0
0
0
0
0
0
0
1
0
0
0
0
1
0
1
0
0
0
0
0
0
0
1
0
0
0
1
0
0
0
1
0
1
1
0
0
1
1
0
0
0
1
0
0
0
1
0
0
0
0
0
0
0
0
0
1
0
0
0
0
0
0
1
0
0
0
0
0
0
0
0
0
0
0
0
0
0
0
0
0
0
0
0
0
0
0
0
0
0
0
1
0
0
1
0
0
0
0
0
0
0
0
0
0
0
0
0
0
0
0
0
0
1
0
0
1
0
0
0
0
0
0
0
0
0
0
0
1
0
0
1
0
0
0
0
0
0
0
0
0
0
0
1
1
0
0
0
0
0
0
0
0
0
0
0
0
1
0
0
0
0
0
0
0
0
0
0
0
0
0
0
0
0
0
1
0
0
0
0
0
0
0
0
0
0
0
0
0
0
0
0
0
1
0
0
0
0
0
0
0
0
0
0
0
0
0
0
0
0
0
0
0
0
0
0
0
0
0
0
0
0
0
0
0
0
0
0
0
0
0
0
0
0
1
0
0
0
0
0
0
0
0
0
0
0
0
0
0
0
0
0
0
0
0
0
0
0
0
0
0
0
0
0
0
0
0
0
0
0
0
0
0
0
0
0
0
0
0
0
1
0
0
0
0
0
0
0
0
0
0
0
0
0
0
0
0
0
0
0
0
0
0
0
0
0
0
0
0
0
0
0
0
0
0
0
0
0
0
0
0
0
0
0
0
0
0
0
1
0
0
0
0
0
0
0
0
0
0
1
0
0
0
0
0
0
0
0
0
0
0
0
0
0
0
1
0
0
1
0
0
0
0
0
0
0
0
0
0
0
0
0
0
0
0
0
0
0
0
0
0
0
1
0
0
0
0
0
0
0
0
0
0
0
0
0
0
0
0
0
0
0
0
0
0
0
0
0
0
0
0
0
0
0
0
0
0
0
1
0
0
0
0
0
0
0
0
0
0
0
0
0
0
0
0
0
0
0
0
0
0
0
0
0
0
0
0
0
0
0
0
0
0
0
0
0
0
0
0
0
0
0
0
0
0
0
0
0
0
0
0
0
0
0
0
0
0
0
0
0
0
0
0
0
0
0
0
0
0
0
0
0
0
0
0
1
0
0
0
0
0
0
0
0
0
0
0
0
0
0
0
0
0
0
0
0
0
0
0
0
0
0
0
0
0
0
0
0
0
0
0
0
0
0
0
1
0
0
0
0
0
0
0
0
0
0
0
0
1
1
0
0
0
0
0
0
0
0
0
0
0
0
0
0
0
0
0
0
0
0
0
0
0
0
0
0
0
0
0
0
0
0
0
0
0
0
0
0
0
0
0
0
0
0
0
0
0
0
0
0
0
0
0
0
0
0
0
0
0
0
0
0
0
0
0
0
0
0
0
0
0
0
0
0
0
0
0
0
0
0
0
0
0
0
0
0
0
0
0
0
0
0
0
0
0
0
0
0
0
0
0
1
0
1
0
0
0
0
0
0
0
1
1
1
1
0
0
0
0
0
0
0
0
0
0
0
0
0
0
0
0
0
0
0
0
0
0
0
0
0
0
0
0
1
1
0
0
0
0
0
0
0
0
0
0
0
0
0
0
0
0
0
0
1
0
0
0
0
0
0
0
1
1
0
1
1
0
0
1
0
0
0
0
0
0
0
1
0
1
0
0
0
0
0
0
0
0
0
0
0
0
0
0
0
0
0
0
0
0
0
0
0
0
0
0
0
1
1
0
0
0
1
1
0
0
0
0
1
0
0
1
0
1
0
0
0
0
0
1
0
0
0
1
0
0
0
0
0
0
0
0
0
0
0
0
0
0
0
0
0
0
0
0
0
0
0
0
0
0
0
1
0
0
0
0
0
0
1
0
0
0
0
0
0
0
0
0
0
0
0
0
0
0
0
0
0
0
0
0
0
0
0
0
0
0
0
0
1
0
1
0
0
0
0
0
0
0
1
0
0
0
0
0
0
0
0
0
0
0
1
0
0
0
0
0
0
0
0
0
1
0
0
0
0
0
0
0
1
0
0
0
0
0
0
0
1
0
0
0
0
0
0
0
0
0
0
0
0
0
0
0
0
0
0
0
1
0
1
0
0
0
0
0
1
0
0
0
0
0
0
0
0
0
0
0
0
0
0
0
0
0
0
0
0
0
0
0
0
0
1
0
1
0
0
0
0
0
0
0
0
0
1
0
0
0
0
0
1
0
0
0
0
0
0
0
0
0
0
0
0
0
0
0
1
0
0
0
0
0
0
0
0
1
0
0
0
0
0
0
0
0
0
0
0
0
0
0
0
0
0
0
0
0
0
0
0
0
0
0
0
0
0
0
1
0
0
0
0
0
0
0
0
0
0
0
0
0
0
0
0
1
0
0
0
0
0
0
0
0
1
0
0
0
0
0
0
0
0
0
1
0
0
0
0
0
1
0
0
0
0
0
0
0
0
0
0
0
0
0
0
0
0
0
0
0
1
0
0
0
0
0
0
1
0
0
0
0
0
0
0
0
1
0
0
0
0
0
0
0
0
0
0
0
0
0
0
1
0
0
1
0
0
0
1
0
0
0
0
0
0
0
0
0
0
0
0
0
0
0
0
1
0
0
0
0
0
0
0
0
0
0
1
0
1
0
0
0
0
0
0
1
0
0
0
0
0
0
0
0
0
0
0
0
0
0
0
0
0
0
0
0
0
0
0
0
0
0
0
1
1
0
0
0
0
0
0
1
0
0
0
0
0
0
0
0
0
0
0
0
0
1
0
0
0
0
0
0
0
1
0
0
0
0
0
0
0
0
0
0
0
0
0
0
0
0
0
0
0
0
0
0
0
0
0
0
0
1
0
0
0
0
0
0
0
0
0
0
1
0
0
1
0
0
0
0
0
0
0
0
0
0
0
0
0
0
0
0
0
0
0
0
0
0
0
0
0
0
0
0
0
1
0
0
0
0
0
0
0
1
0
0
0
0
0
0
0
1
0
0
0
0
1
0
0
0
0
0
0
0
0
0
0
0
1
0
1
0
0
0
1
0
				</DataArray>
				<DataArray type="Float64" Name="h" NumberOfComponents="1" Format="ascii">
1.1687450177
1.1687611129
1.1647755032
1.1679162039
1.1643649676
1.1654127920
1.1663980126
1.1698038122
1.1675654168
1.1724185388
1.1690676869
1.1658620431
1.1702980040
1.1703303097
1.1697715766
1.1729859901
1.1669712559
1.1721032026
1.1691447768
1.1693495992
1.1634102285
1.1702897597
1.1667793172
1.1630314297
1.1680929335
1.1743368712
1.1686093114
1.1601819433
1.1646689281
1.1713392588
1.1703990014
1.1662133673
1.1709208717
1.1646415162
1.1583866770
1.1624571075
1.1608729387
1.1664153471
1.1601706943
1.1625286209
1.1640413445
1.1592835419
1.1679858245
1.1641880973
1.1618758778
1.1613946328
1.1657772207
1.1572701646
1.1463702443
1.1475249541
1.1621733595
1.1619835238
1.1635553976
1.1538459204
1.1597941227
1.1676814462
1.1608345611
1.1547005933
1.1537678092
1.1544601875
1.1515337683
1.1525654631
1.1470822853
1.1613828114
1.1629241327
1.1573588581
1.1487176954
1.1483112740
1.1525896590
1.1536788983
1.1534485832
1.1592654994
1.1661285895
1.1525108574
1.1531330341
1.1587571314
1.1545693136
1.1514621536
1.1557169064
1.1593064640
1.1495733444
1.1559471622
1.1432081488
1.1495565108
1.1612473718
1.1568593701
1.1488195520
1.1507789536
1.1507124234
1.1440204388
1.1480928400
1.1582368315
1.1504031972
1.1449687206
1.1550915767
1.1564635907
1.1524945139
1.1605428225
1.1588999183
1.1487073547
1.1439172621
1.1496846192
1.1533934919
1.1559055228
1.1748909953
1.1499838149
1.1543103526
1.1454704838
1.1516487913
1.1547377142
1.1458268362
1.1448185979
1.1491390853
1.1476020877
1.1517781802
1.1450980931
1.1530967893
1.1737458705
1.1457964560
1.1503184841
1.1744833753
1.1521077206
1.1561944351
1.1756892587
1.1486842480
1.1453124385
1.1515360713
1.1763736109
1.1458142628
1.1447281717
1.1464128148
1.1539106745
1.1500796270
1.1452154151
1.1735214055
1.1464854209
1.1758868392
1.1446343555
1.1480070704
1.1726843206
1.1770512508
1.1746281373
1.1455965181
1.1706571054
1.1557349555
1.1472077416
1.1744223760
1.1429343841
1.1754112571
1.1424888537
1.1765829016
1.1445715417
1.1440384227
1.1427789024
1.1487414057
1.1439355973
1.1434103053
1.1761169231
1.1427462066
1.1784955024
1.1719916909
1.1432088275
1.1753677574
1.1775217162
1.1763083504
1.1435535942
1.1683552123
1.1739302712
1.1772411725
1.1434846333
1.1436897433
1.1782834054
1.1430477813
1.1766617569
1.1674397672
1.1426123031
1.1698288585
1.1421037632
1.1426745869
1.1778357652
1.1439784421
1.1649304492
1.1787688343
1.1551006119
1.1785451193
1.1792309674
1.1659169189
1.1425894543
1.1777715606
1.1794755617
1.1623570679
1.1426792345
1.1793412579
1.1634084180
1.1426859573
1.1425773476
1.1779782573
1.1597371623
1.1608354536
1.1418788212
1.1795679280
1.1536665808
1.1793533771
1.1423450597
1.1570889517
1.1795354846
1.1744201506
1.1771140259
1.1581948613
1.1704744352
1.1630115072
1.1791393883
1.1787103332
1.1799029931
1.1759132082
1.1603168841
1.1725816096
1.1789667279
1.1656270667
1.1794183958
1.1555718283
1.1443183356
1.1681308301
1.1463737034
1.1526206519
1.1416009999
1.1427255157
1.1491987071
1.1544938822
1.1434525390
1.1419993557
1.1452973684
1.1508728913
1.1416261173
1.1417816989
1.1476260875
1.1619284286
1.1744003435
1.1797316907
1.1703032305
1.1625583703
1.1772583379
1.1796716075
1.1696337755
1.1767885662
1.1738447023
1.1795100418
1.1646068286
1.1759921377
1.1791068918
1.1724894898
1.1652812464
1.1788398684
1.1592092466
1.1597800373
1.1800660079
1.1718628459
1.1754901130
1.1799031107
1.1454716721
1.1678818154
1.1520234341
1.1486892508
1.1458910643
1.1512560342
1.1416847753
1.1411572334
1.1549538950
1.1414221164
1.1438054808
1.1422548145
1.1671952775
1.1435271627
1.1479471351
1.1466085189
1.1539063691
1.1502939511
1.1471953036
1.1447790447
1.1530397302
1.1427487673
1.1411702188
1.1414445128
1.1413375002
1.1429600359
1.1444413952
1.1495534542
1.1743940017
1.1796563617
1.1798129059
1.1738009087
1.1614598191
1.1773976230
1.1769508592
1.1701303896
1.1620990271
1.1694374826
1.1760609838
1.1792505587
1.1800657346
1.1802217584
1.1755402137
1.1642266187
1.1592666514
1.1586785260
1.1724062634
1.1649086129
1.1717503887
1.1789884327
1.1514599824
1.1474743308
1.1481441733
1.1409390830
1.1543682027
1.1417642901
1.1449388071
1.1676106153
1.1430213010
1.1406813246
1.1669086204
1.1453996392
1.1506509066
1.1432943925
1.1412232438
1.1497255472
1.1490031820
1.1466963232
1.1409789220
1.1461149455
1.1439159095
1.1422634057
1.1408627726
1.1406854356
1.1533737586
1.1442702665
1.1524285083
1.1424574244
1.1737803339
1.1391666169
1.1699700886
1.1616882985
1.1692409718
1.1798125142
1.1610133370
1.1775395906
1.1744125910
1.1770822377
1.1799617001
1.1397052731
1.1489926053
1.1588311967
1.1430395909
1.1755970466
1.1791595527
1.1388952888
1.1723423344
1.1470776842
1.1645599021
1.1716479071
1.1414294492
1.1410721830
1.1383613302
1.1802210726
1.1638467667
1.1582000355
1.1761478268
1.1533053150
1.1503666689
1.1456407928
1.1803770241
1.1439774338
1.1398958406
1.1794110749
1.1401836100
1.1444258990
1.1449013031
1.1407358875
1.1809221881
1.1412650683
1.1509718495
1.1538633130
1.1425089671
1.1404337863
1.1673506181
1.1427883257
1.1666163134
1.1500755423
1.1469514192
1.1476189402
1.1721543370
1.1401780759
1.1529443837
1.1456100146
1.1580295383
1.1403687042
1.1437690064
1.1815577598
1.1786317500
1.1768843962
1.1635832074
1.1492063275
1.1417628908
1.1664925065
1.1433956633
1.1607418401
1.1404865696
1.1419534133
1.1518724649
1.1484419447
1.1693839786
1.1461859711
1.1510134546
1.1424168815
1.1489525945
1.1737910985
1.1392524836
1.1407761319
1.1690699286
1.1419771858
1.1492058493
1.1534771555
1.1558806587
1.1772266271
1.1403106905
1.1384985231
1.1446440558
1.1394647774
1.1799823594
1.1406726171
1.1606435489
1.1472092992
1.1382184109
1.1427080136
1.1392707042
1.1454256379
1.1442539825
1.1392511983
1.1415237039
1.1397357861
1.1537492402
1.1490637663
1.1437912183
1.1756823790
1.1408363682
1.1506842326
1.1715712702
1.1475023027
1.1472240389
1.1434556562
1.1403492823
1.1424866868
1.1393783828
1.1803760250
1.1511288850
1.1635167391
1.1558799196
1.1375277842
1.1388883158
1.1453544119
1.1380602439
1.1793443413
1.1578280777
1.1738561598
1.1399111335
1.1663565198
1.1439250735
1.1459887711
1.1495769651
1.1618564830
1.1774167511
1.1402354522
1.1689606339
1.1420036401
1.1632883017
1.1534930435
1.1464386879
1.1374228533
1.1705822600
1.1801702668
1.1810744485
1.1806793044
1.1576129208
1.1758209976
1.1399783293
1.1389176312
1.1383238455
1.1412608804
1.1798887775
1.1451068318
1.1793778284
1.1494655227
1.1514225615
1.1370014439
1.1795547908
1.1815573903
1.1746918089
1.1715494386
1.1375852316
1.1428914786
1.1814043633
1.1424095884
1.1399586646
1.1733400747
1.1768843343
1.1635828595
1.1661741048
1.1479244713
1.1805361838
1.1549863497
1.1475438306
1.1798890790
1.1604040664
1.1438489427
1.1689612486
1.1540175270
1.1801690119
1.1423746749
1.1512782522
1.1803255615
1.1698267662
1.1604038884
1.1470937753
1.1492619042
1.1386250872
1.1746177857
1.1401084842
1.1831715819
1.1454031594
1.1564701643
1.1612320888
1.1413293404
1.1738564973
1.1438227075
1.1779533624
1.1774159006
1.1643876151
1.1795533847
1.1715500601
1.1805350731
1.1564698172
1.1576123666
1.1673792383
1.1782856102
1.1805981522
1.1732261397
1.1723804202
1.1821458889
1.1632884631
1.1703537240
1.1802730887
1.1378082669
1.1759024389
1.1764816592
1.1586142587
1.1798259829
1.1559189279
1.1584097640
1.1817290971
1.1395349207
1.1384005931
1.1641437032
1.1824428548
1.1388870578
1.1758207837
1.1614486647
1.1415187844
1.1661745307
1.1459866795
1.1456614802
1.1393809070
1.1670454208
1.1473983936
1.1410640610
1.1455274616
1.1492031807
1.1805767976
1.1533011208
1.1517282127
1.1438482964
1.1641686908
1.1725546797
1.1434525196
1.1424090456
1.1845653794
1.1495917787
1.1783007126
1.1397357895
1.1424123051
1.1474999003
1.1858864622
1.1394667018
1.1658221121
1.1758292367
1.1616529402
1.1838101177
1.1511264663
1.1612712343
1.1807885105
1.1371804142
1.1676796075
1.1590872166
1.1670898847
1.1377851661
1.1748722520
1.1446418158
1.1799056722
1.1712478075
1.1386258922
1.1407717337
1.1885381210
1.1743501259
1.1793937566
1.1395086347
1.1874117250
1.1517279972
1.1767987303
1.1457470615
1.1779527326
1.1670456043
1.1612318265
1.1746179057
1.1377214685
1.1533830790
1.1801308265
1.1803245866
1.1699244117
1.1906827326
1.1384280291
1.1798249394
1.1837411198
1.1712477626
1.1885589373
1.1809508987
1.1584091501
1.1698270454
1.1641437130
1.1764814495
1.1405743739
1.1376682659
1.1424766588
1.1475995995
1.1805972160
1.1746467037
1.1680418428
1.1633095247
1.1370810864
1.1405894947
1.1586141112
1.1772625091
1.1379436238
1.1939179735
1.1718141856
1.1806739475
1.1780768523
1.1964292380
1.1662187575
1.1604588456
1.1723806965
1.1419281696
1.1742802938
1.1809030479
1.1793271596
1.1440365487
1.1394018007
1.1371341376
1.1434438545
1.1926996256
1.1690900709
1.1801722911
1.1763894318
1.1370624977
1.1367536719
1.1643874387
1.1779046745
1.1677964745
1.1862660636
1.1405864347
1.1878377722
1.1850740608
1.1366655193
1.1373355315
1.1711080793
1.1745795787
1.1398929932
1.1780153596
1.1805678851
1.1910095765
1.1383835747
1.1369404770
1.1375789970
1.1805653750
1.1827422381
1.1922002111
1.1893169914
1.1870954314
1.1388285952
1.1379624747
1.1410822605
1.1398799179
1.1969393342
1.1373179360
1.1366732985
1.1911950887
1.1376689213
1.1388527584
1.1885379219
1.1366692634
1.1759023634
1.1370535605
1.1828522961
1.1815745109
1.1368070946
1.1874115174
1.1369282250
1.1366892052
1.1824426079
1.1368321342
1.1838151681
1.1843925810
1.1374516684
1.1368632265
1.1818960092
1.1672669083
1.1666321526
1.1666460561
1.1672841923
1.1669811884
1.1658578563
1.1690606264
1.1688189742
1.1650915598
1.1654054135
1.1643733101
1.1651040539
1.1675750523
1.1697604274
1.1663894574
1.1712938405
1.1688284989
1.1669876178
1.1710369773
1.1720968942
1.1679225048
1.1647808314
1.1691270161
1.1713341406
1.1724106250
1.1657935887
1.1698131876
1.1743355185
1.1680883502
1.1724241091
1.1711464157
1.1703113996
1.1638016801
1.1721867053
1.1682451467
1.1713002188
1.1703948508
1.1710477360
1.1646400174
1.1709067747
1.1661900813
1.1700418739
1.1625239225
1.1614026581
1.1669735570
1.1729927121
1.1679639539
1.1601487224
1.1657965549
1.1724168436
1.1640261553
1.1703357140
1.1693527116
1.1638057287
1.1668043226
1.1567289085
1.1703042687
1.1612785213
1.1711593276
1.1634126532
1.1682677538
1.1689037563
1.1585356866
1.1572685222
1.1721951897
1.1618684301
1.1621717083
1.1657486154
1.1602025214
1.1630380210
1.1646886093
1.1608150065
1.1627823338
1.1686299129
1.1597129226
1.1732160972
1.1614221696
1.1587942401
1.1583276035
1.1700572179
1.1635313674
1.1567301846
1.1465548455
1.1481202520
1.1689245920
1.1612819592
1.1602700357
1.1585488825
1.1624679952
1.1628967895
1.1664412583
1.1575462645
1.1583889036
1.1470896320
1.1483170643
1.1581724581
1.1608750653
1.1613714161
1.1587998990
1.1555007172
1.1548483283
1.1642144513
1.1525129569
1.1548637628
1.1592606664
1.1661057864
1.1536155170
1.1636243972
1.1635986284
1.1597162557
1.1515940738
1.1583294119
1.1592939909
1.1545690335
1.1534490201
1.1521922918
1.1531340560
1.1628048908
1.1654103930
1.1525896506
1.1595962593
1.1732213823
1.1536778875
1.1602752108
1.1575486677
1.1576677751
1.1581829119
1.1494130574
1.1567945008
1.1477151429
1.1463622115
1.1620000733
1.1481147317
1.1614170257
1.1559407777
1.1495611133
1.1566921900
1.1465462486
1.1475179184
1.1515338956
1.1525665388
1.1654355915
1.1506078738
1.1521889299
1.1537675717
1.1553963662
1.1548640438
1.1602173158
1.1651780725
1.1555013498
1.1595980161
1.1572838836
1.1598013179
1.1526392770
1.1536158432
1.1515949894
1.1677014533
1.1555781542
1.1528023625
1.1636438331
1.1538456899
1.1548483150
1.1544596072
1.1582260002
1.1547011588
1.1636230805
1.1504041805
1.1494088211
1.1559041154
1.1588818440
1.1566953066
1.1626838709
1.1567958363
1.1496841680
1.1488603649
1.1496890921
1.1507682435
1.1573717879
1.1439228155
1.1487123202
1.1569728834
1.1605269931
1.1505466926
1.1564527698
1.1562787114
1.1477076475
1.1487084503
1.1499875077
1.1576814946
1.1431641416
1.1555826164
1.1516502754
1.1448268368
1.1506078592
1.1528010594
1.1491410744
1.1572859711
1.1587658211
1.1460222699
1.1553966305
1.1514611130
1.1651978205
1.1478703069
1.1602265186
1.1458357294
1.1547308883
1.1526388001
1.1496878279
1.1431617240
1.1541972872
1.1505474142
1.1568678391
1.1521058249
1.1509763912
1.1569744049
1.1746250586
1.1562800918
1.1507669262
1.1612607865
1.1593209731
1.1488190545
1.1432047353
1.1495731894
1.1530941415
1.1557177016
1.1488547897
1.1744818822
1.1507767898
1.1626986367
1.1478684365
1.1539057441
1.1469203097
1.1751656627
1.1453187463
1.1494448210
1.1473968230
1.1507090588
1.1550975358
1.1449594243
1.1448693436
1.1440137846
1.1480900519
1.1459595409
1.1546913059
1.1486885775
1.1515379776
1.1460124020
1.1447293456
1.1533964120
1.1443527703
1.1471643539
1.1541993037
1.1746263208
1.1509715700
1.1468875351
1.1735190818
1.1464879830
1.1500857394
1.1748921403
1.1524949537
1.1557287519
1.1479299970
1.1746266285
1.1489262614
1.1751657039
1.1448673970
1.1475969200
1.1454630577
1.1749369161
1.1546925304
1.1473935315
1.1517776678
1.1754105918
1.1469129472
1.1455973749
1.1763587646
1.1450970476
1.1494420291
1.1472093256
1.1459548409
1.1543138981
1.1747210228
1.1576636548
1.1483510691
1.1441778494
1.1443499381
1.1468810263
1.1769118368
1.1450783576
1.1444720095
1.1479430885
1.1503131066
1.1471561812
1.1445720312
1.1737482323
1.1472211420
1.1457929713
1.1726527531
1.1765863840
1.1440384179
1.1487413255
1.1749373624
1.1763595036
1.1739283847
1.1763087517
1.1489212688
1.1430329912
1.1747220926
1.1768674583
1.1424511103
1.1495218877
1.1479250426
1.1756903629
1.1458137724
1.1719840129
1.1754833624
1.1561995321
1.1464110769
1.1726016495
1.1753694712
1.1464175516
1.1432083146
1.1763739617
1.1427457129
1.1479424807
1.1758857137
1.1452148366
1.1437141215
1.1499817679
1.1444677397
1.1444873995
1.1446340800
1.1430476060
1.1716777182
1.1764058799
1.1480067684
1.1726556275
1.1483452534
1.1769085243
1.1441775776
1.1576695306
1.1472202077
1.1434842848
1.1465051935
1.1450780682
1.1436899767
1.1766633055
1.1424895642
1.1787690538
1.1514149515
1.1754839152
1.1768673344
1.1436136401
1.1432637859
1.1427721315
1.1706700580
1.1429349223
1.1744235159
1.1778368069
1.1424521268
1.1726043086
1.1495189133
1.1786078500
1.1770507798
1.1439787510
1.1464169339
1.1698166755
1.1471531741
1.1726915947
1.1430332961
1.1779668648
1.1777712330
1.1439353585
1.1434103421
1.1764030999
1.1518521534
1.1437143949
1.1738144254
1.1716801166
1.1499787709
1.1785444683
1.1444868414
1.1427785989
1.1761156150
1.1465045774
1.1659015668
1.1532278744
1.1426857470
1.1683714077
1.1779666584
1.1436122225
1.1425771806
1.1786071700
1.1427724436
1.1471527101
1.1429477664
1.1786928192
1.1432640334
1.1514168052
1.1775988954
1.1426791278
1.1457416859
1.1775208222
1.1435528912
1.1633969936
1.1421792680
1.1784954639
1.1536634691
1.1423856837
1.1782838938
1.1793528862
1.1674535287
1.1423444146
1.1518538578
1.1772418541
1.1795672893
1.1738160389
1.1608282194
1.1423050310
1.1426747693
1.1776300373
1.1786930307
1.1775989177
1.1791389733
1.1421804941
1.1429483317
1.1788388521
1.1425618117
1.1649421822
1.1457410427
1.1426123803
1.1532315703
1.1795687384
1.1796005338
1.1421049802
1.1787116926
1.1581901675
1.1623650035
1.1419980131
1.1423860650
1.1794761957
1.1423056205
1.1422505021
1.1420431628
1.1551044705
1.1792314845
1.1425898658
1.1555696208
1.1795107846
1.1738428424
1.1777661436
1.1767921795
1.1597417745
1.1796011451
1.1576045232
1.1792460781
1.1696254226
1.1781433430
1.1776281351
1.1619244598
1.1793415796
1.1796842559
1.1425615016
1.1779761929
1.1798281144
1.1754917718
1.1779109715
1.1592076396
1.1718569322
1.1788418726
1.1646003979
1.1795693389
1.1797312695
1.1788380257
1.1418698678
1.1565094381
1.1570910551
1.1422514469
1.1444524549
1.1671869326
1.1420440814
1.1466170591
1.1530380085
1.1414423382
1.1427535300
1.1421619741
1.1495539142
1.1549543086
1.1435356806
1.1418801255
1.1454826721
1.1512540057
1.1414198264
1.1421285767
1.1416837005
1.1479518607
1.1630177660
1.1737994755
1.1782915428
1.1794183993
1.1694324387
1.1614582562
1.1781404429
1.1576059494
1.1777634292
1.1793713656
1.1570255029
1.1769540573
1.1796575193
1.1792461960
1.1704838282
1.1771107700
1.1744215155
1.1795350618
1.1656359259
1.1755415489
1.1789908055
1.1796847794
1.1717464348
1.1642233930
1.1789651681
1.1603207995
1.1586787374
1.1780867689
1.1799823231
1.1725875956
1.1779076609
1.1759114512
1.1798284115
1.1452872929
1.1669040308
1.1559599346
1.1524292158
1.1490028138
1.1461215642
1.1508750257
1.1421273408
1.1417832076
1.1409766667
1.1544944644
1.1416275756
1.1417080446
1.1439274405
1.1422691477
1.1681412133
1.1418715647
1.1434451291
1.1476209618
1.1463657341
1.1543706623
1.1506502028
1.1474766757
1.1449491282
1.1526232896
1.1427215251
1.1421614033
1.1409362293
1.1565086204
1.1416032410
1.1412223676
1.1430309334
1.1416597711
1.1443084487
1.1491971612
1.1737793977
1.1784453987
1.1796707765
1.1793710715
1.1798139335
1.1744013805
1.1625616951
1.1564978726
1.1770846675
1.1570250588
1.1772550751
1.1692382530
1.1610129009
1.1703091010
1.1782884247
1.1755979667
1.1791619035
1.1799822909
1.1801337346
1.1759903701
1.1652860678
1.1582007593
1.1782608635
1.1597815577
1.1780833734
1.1716455925
1.1638453305
1.1724935828
1.1791048811
1.1518751715
1.1471915459
1.1484426192
1.1411725087
1.1539042148
1.1417689639
1.1447688353
1.1666140222
1.1429513826
1.1416579854
1.1412278761
1.1404842561
1.1554894598
1.1678877562
1.1456141841
1.1502951794
1.1434056679
1.1413386404
1.1500770489
1.1486890256
1.1469528282
1.1411597371
1.1559577542
1.1411691004
1.1458836520
1.1437947057
1.1422497580
1.1407350128
1.1404307927
1.1538664136
1.1444336853
1.1520235292
1.1425182594
1.1417065789
1.1392527953
1.1472113477
1.1560772723
1.1419801600
1.1743946034
1.1784424884
1.1389656445
1.1392849102
1.1690685916
1.1483537965
1.1606434067
1.1701336188
1.1424613951
1.1403134523
1.1386771250
1.1798117985
1.1621005768
1.1564967481
1.1772281879
1.1737905357
1.1773948275
1.1510149808
1.1526440504
1.1442562404
1.1799838073
1.1450241232
1.1405560259
1.1786129826
1.1397456810
1.1484878554
1.1578284984
1.1428405749
1.1760595397
1.1792484605
1.1388558736
1.1388049983
1.1715700439
1.1465822035
1.1635161170
1.1724086674
1.1416114651
1.1409865319
1.1386242885
1.1801333421
1.1649111071
1.1592669028
1.1784389092
1.1756828899
1.1782579601
1.1525666426
1.1510808071
1.1453123269
1.1802822737
1.1436563671
1.1398402751
1.1793463010
1.1701756197
1.1399760037
1.1551504527
1.1442615921
1.1611083912
1.1407327320
1.1451095835
1.1408635042
1.1810749192
1.1814182906
1.1772686981
1.1412663837
1.1793779712
1.1669060257
1.1514257874
1.1411670257
1.1533702114
1.1643774446
1.1424486847
1.1587394642
1.1406882401
1.1663554638
1.1428986423
1.1676137355
1.1497245019
1.1466939836
1.1726380535
1.1479265272
1.1733400990
1.1399082249
1.1534954780
1.1453941108
1.1590875652
1.1402347607
1.1439301198
1.1412260570
1.1811692452
1.1813816820
1.1795058048
1.1406700774
1.1779207784
1.1647417574
1.1495797520
1.1417588775
1.1554875139
1.1676797451
1.1432843316
1.1618567837
1.1406835398
1.1420111520
1.1514574588
1.1481434993
1.1705823380
1.1464404292
1.1503980359
1.1398764946
1.1422977854
1.1402345743
1.1512789351
1.1483525704
1.1470946748
1.1448252616
1.1744129127
1.1393695884
1.1419769817
1.1407685494
1.1393697258
1.1531026216
1.1699716924
1.1418349009
1.1487802779
1.1526432817
1.1468017853
1.1550113697
1.1485029484
1.1775375840
1.1402849473
1.1386775363
1.1444222629
1.1395364610
1.1418380997
1.1413309681
1.1396746179
1.1799604921
1.1526653354
1.1405536383
1.1616889148
1.1533042229
1.1534779583
1.1378090039
1.1384014556
1.1467992657
1.1438239379
1.1380751922
1.1424592834
1.1392836000
1.1384888417
1.1786106714
1.1560763202
1.1450223597
1.1439938940
1.1384981503
1.1489910424
1.1390943502
1.1414585023
1.1406746227
1.1398668392
1.1528501481
1.1503655149
1.1483716506
1.1433036992
1.1761468681
1.1389664974
1.1411500764
1.1401769890
1.1515269825
1.1723435913
1.1410689890
1.1471578606
1.1551990157
1.1551996203
1.1465538145
1.1784368116
1.1397036008
1.1388948465
1.1432852623
1.1401799643
1.1421687815
1.1396564968
1.1802815694
1.1506060562
1.1454270107
1.1414271183
1.1645610800
1.1550106463
1.1377220404
1.1388597118
1.1456389065
1.1448627980
1.1379117664
1.1436541631
1.1398382499
1.1380594124
1.1794091901
1.1588310271
1.1465803283
1.1430371576
1.1744768383
1.1401809009
1.1395095546
1.1377861787
1.1406678530
1.1673521344
1.1806789349
1.1437629225
1.1779207019
1.1473988292
1.1457109083
1.1492033310
1.1607414008
1.1371814469
1.1788057940
1.1814178638
1.1777134851
1.1403693332
1.1752420966
1.1698552393
1.1379446379
1.1419459776
1.1805695255
1.1433305043
1.1390459038
1.1701755891
1.1786315861
1.1614969551
1.1614965615
1.1642877694
1.1529412495
1.1461837861
1.1374603969
1.1693838936
1.1639755388
1.1801283920
1.1809216165
1.1533029395
1.1488269938
1.1811739704
1.1806728633
1.1585303237
1.1816578202
1.1423612274
1.1762775632
1.1401854672
1.1386268786
1.1381815630
1.1412600485
1.1798800068
1.1448976010
1.1795056657
1.1486801066
1.1509682753
1.1639752746
1.1370822071
1.1795971341
1.1813812088
1.1786506789
1.1407310004
1.1758292629
1.1723221023
1.1374635748
1.1427804908
1.1811736208
1.1418654353
1.1396533295
1.1721543494
1.1772686313
1.1647415277
1.1728727352
1.1671464226
1.1551495529
1.1476167657
1.1372220153
1.1726379919
1.1804342202
1.1811686995
1.1788028072
1.1558174711
1.1468142529
1.1805598349
1.1805698061
1.1613821986
1.1432841760
1.1622508694
1.1788042219
1.1698559627
1.1531022352
1.1801272427
1.1419756827
1.1537487213
1.1558165033
1.1708691251
1.1504809389
1.1812421150
1.1803895813
1.1766098549
1.1384528549
1.1689555202
1.1465055256
1.1821392570
1.1613822631
1.1681605525
1.1465045079
1.1453095945
1.1485023253
1.1787378957
1.1402878134
1.1388575283
1.1540178294
1.1525656228
1.1384519517
1.1739305947
1.1740084470
1.1398750319
1.1409835650
1.1567241593
1.1825172526
1.1503995074
1.1790525532
1.1448243374
1.1439758564
1.1554800037
1.1587112743
1.1392717682
1.1557527130
1.1839535201
1.1391678819
1.1385686108
1.1510797165
1.1410899234
1.1377127380
1.1603374887
1.1815243768
1.1410881038
1.1394349375
1.1744770306
1.1647006858
1.1434211481
1.1776860083
1.1777122793
1.1398934285
1.1655832172
1.1795956550
1.1723227122
1.1557521873
1.1804333229
1.1433025613
1.1554795690
1.1454039280
1.1585298453
1.1686450840
1.1490629970
1.1796512795
1.1807053589
1.1745796424
1.1716195561
1.1826604291
1.1642881975
1.1716716480
1.1489537938
1.1453534325
1.1506837178
1.1815746425
1.1383615283
1.1401097435
1.1380745813
1.1772750465
1.1760445712
1.1408349440
1.1596216850
1.1830329500
1.1798163629
1.1465530418
1.1377135792
1.1557524482
1.1568207011
1.1575851770
1.1828524809
1.1390929733
1.1380593055
1.1632096557
1.1832582564
1.1403476073
1.1384876280
1.1762770622
1.1625566193
1.1424852679
1.1789321230
1.1786493769
1.1414531817
1.1671470638