<VTKFile type="UnstructuredGrid" version="0.1">
	<UnstructuredGrid>
		<Piece NumberOfPoints="1862" NumberOfCells="3498">
			<CellData>
				<DataArray type="Int32" Name="type" NumberOfComponents="1" Format="ascii">
0
0
0
0
0
0
0
0
0
0
0
0
0
0
0
0
1
0
0
1
0
0
0
0
0
0
0
0
0
0
0
0
0
1
0
0
0
0
0
0
0
0
0
0
0
0
0
0
0
0
1
0
0
0
0
0
0
0
0
0
0
1
0
0
0
0
0
0
0
0
0
0
0
0
0
0
0
0
0
0
0
0
0
0
0
0
0
0
0
0
0
0
0
0
0
0
0
0
0
0
0
0
0
0
0
0
0
0
0
0
0
0
0
0
0
0
0
0
0
0
0
0
0
1
0
0
0
0
0
0
0
0
0
0
0
0
0
0
0
0
0
0
0
0
0
0
0
0
0
0
0
1
0
1
1
0
0
0
0
0
0
0
0
0
0
0
0
0
1
0
1
0
0
0
0
1
0
0
0
0
0
0
0
0
1
1
0
0
0
0
0
1
0
0
0
0
0
0
0
0
1
0
0
0
0
0
0
0
0
0
0
0
0
0
0
0
0
0
0
0
0
0
0
0
0
0
0
0
0
0
0
0
0
1
0
0
0
0
0
0
0
0
0
0
0
0
0
0
0
0
0
0
0
0
0
0
0
0
0
0
0
0
0
0
0
0
0
0
0
0
0
0
0
0
0
0
0
0
0
0
0
1
0
0
0
0
0
0
0
0
0
0
0
0
0
0
0
0
0
0
0
0
0
0
0
0
0
0
0
0
0
0
0
0
0
0
0
0
0
0
0
0
0
0
0
0
0
0
0
0
0
0
1
0
0
0
0
0
0
0
0
0
0
0
0
0
0
0
0
0
0
0
0
0
0
0
0
0
0
0
0
0
0
0
0
0
0
0
0
0
0
0
0
0
0
0
0
0
0
0
0
0
0
0
0
0
0
0
0
0
1
0
0
0
0
0
0
0
0
0
0
0
0
0
0
0
0
0
0
0
0
0
0
0
0
0
0
0
0
0
0
0
0
0
0
0
0
0
0
0
0
0
0
0
0
0
0
0
0
0
0
0
0
0
0
0
0
0
0
0
0
0
0
0
0
0
0
0
0
0
0
0
0
0
0
0
0
0
0
0
0
0
0
0
0
0
0
0
0
0
0
0
0
0
0
0
0
0
0
0
0
0
0
0
0
0
0
0
0
0
0
0
0
0
0
0
0
0
0
0
0
0
0
0
0
0
0
0
0
0
0
0
0
1
0
0
0
0
0
0
0
0
0
0
0
0
0
0
0
0
0
0
0
1
0
0
0
0
0
0
0
0
0
0
0
0
0
0
0
0
0
0
0
0
0
0
0
0
0
0
0
0
0
0
0
0
0
0
0
0
0
0
0
0
0
0
0
0
0
0
0
0
0
0
0
0
0
1
0
0
0
0
0
0
0
0
0
0
0
0
0
0
0
0
0
0
0
0
0
0
0
1
0
0
0
0
0
0
0
0
0
0
0
0
0
0
0
0
0
0
0
1
0
0
0
1
0
0
0
0
0
0
0
0
0
0
0
0
0
0
0
0
0
0
0
0
0
0
0
0
0
1
0
0
0
0
0
0
0
1
0
0
0
0
0
0
0
0
0
0
0
0
0
0
0
0
0
0
0
0
0
0
0
0
0
0
1
0
0
0
0
0
0
0
1
0
0
0
0
0
0
1
0
0
0
0
0
0
0
0
0
0
0
0
0
0
0
0
0
0
0
0
0
0
0
0
0
0
0
0
0
0
0
0
0
0
0
0
0
0
1
0
0
0
0
0
1
0
0
0
0
0
0
0
1
0
0
0
0
0
0
0
0
0
0
0
0
0
1
0
0
0
0
0
0
0
0
0
0
0
0
0
0
0
0
0
0
0
0
0
0
0
0
0
0
0
0
0
0
0
0
0
0
0
0
0
0
0
0
0
0
0
0
0
0
0
0
0
0
0
0
0
1
0
0
0
0
0
0
0
0
0
0
0
0
0
0
0
0
0
0
0
1
0
0
0
0
0
0
0
0
0
1
0
0
0
0
0
0
0
0
0
0
0
0
0
0
0
0
0
0
0
0
0
0
0
0
0
0
0
0
0
1
0
1
0
0
0
0
0
0
0
0
0
0
0
0
0
0
0
0
0
0
0
0
0
0
0
0
0
0
0
1
0
0
0
1
0
0
0
0
0
0
0
0
0
0
0
0
0
0
0
0
0
0
0
0
0
0
0
0
0
0
0
0
1
0
0
0
0
0
0
0
0
0
0
0
0
0
0
0
0
0
0
0
0
0
0
0
0
0
1
0
0
0
0
0
0
0
0
0
0
0
0
0
0
0
0
0
0
0
0
0
0
0
1
0
0
0
0
0
0
1
0
0
0
0
0
0
0
0
0
0
0
1
0
0
0
0
0
0
0
0
0
0
0
0
0
0
0
0
0
0
0
0
1
0
0
0
0
0
0
0
0
0
0
0
1
0
0
0
0
0
0
0
0
0
0
0
0
0
0
0
0
0
0
0
0
0
1
0
0
0
0
0
0
0
0
0
1
1
0
1
0
1
0
0
0
0
0
0
0
0
0
0
0
1
0
0
0
0
0
1
1
0
0
0
0
0
0
1
0
0
0
0
0
1
1
1
0
0
0
0
0
0
0
0
0
0
0
0
1
1
0
0
1
0
0
0
0
0
1
0
0
0
1
0
1
0
0
0
0
0
0
0
1
0
0
0
0
0
0
0
1
0
0
1
0
0
0
0
0
0
0
0
0
0
0
0
0
0
0
1
0
0
0
0
0
0
0
0
0
0
0
0
0
0
0
0
0
0
0
0
0
0
0
0
0
0
0
0
0
0
0
0
0
0
0
0
1
0
0
0
0
0
0
1
0
0
0
1
0
0
0
0
0
0
0
0
0
0
0
1
0
0
0
0
0
0
0
0
0
0
0
0
0
0
0
0
0
0
0
0
0
0
0
0
0
0
0
0
0
0
0
0
0
0
0
0
0
0
0
0
1
1
0
0
0
0
0
0
0
0
0
0
0
0
0
1
0
0
0
0
0
0
0
0
0
0
0
0
0
0
0
0
0
0
0
0
0
0
0
0
0
0
0
0
0
0
0
0
0
0
0
0
0
0
0
0
0
0
0
0
0
0
0
0
0
0
0
0
0
0
0
0
0
0
0
0
0
0
0
0
0
0
0
0
0
0
0
0
1
1
0
0
0
0
0
0
0
0
1
0
0
0
0
0
0
0
0
0
0
0
0
0
0
0
0
0
0
0
0
0
0
0
1
0
0
0
0
0
0
0
0
0
0
0
0
0
0
0
0
1
0
0
0
0
0
0
0
0
0
0
0
0
0
0
0
0
0
0
0
0
0
0
0
0
0
0
0
0
0
0
0
0
0
0
0
0
0
0
0
0
0
0
0
0
0
0
0
0
0
0
0
0
0
0
0
0
0
0
0
0
0
0
0
0
0
0
0
0
0
0
0
0
0
0
0
0
0
0
0
0
0
0
0
0
0
0
0
0
0
0
1
1
0
0
0
0
0
1
0
0
0
0
0
0
0
0
0
0
0
0
1
0
0
0
0
0
0
0
0
0
0
0
0
0
0
0
0
0
0
0
0
0
0
0
0
0
0
0
0
0
0
0
0
0
0
0
0
0
0
0
0
0
0
0
0
0
0
0
0
0
0
0
0
0
1
0
1
0
0
0
0
0
0
0
0
0
0
0
0
0
0
0
0
0
0
1
0
0
0
0
0
0
0
0
0
0
0
0
0
0
0
0
0
0
0
0
0
0
0
0
0
0
0
0
0
0
0
0
0
0
0
0
0
0
0
0
0
0
0
0
0
0
0
0
0
0
0
0
0
0
0
0
0
0
0
0
0
0
0
0
0
0
0
0
0
0
1
0
0
0
0
0
0
0
0
0
0
1
0
0
0
0
0
0
0
0
0
0
0
0
0
0
0
0
0
0
0
0
0
0
0
0
0
0
0
0
0
0
0
0
0
0
0
0
0
1
0
0
0
0
0
0
0
0
0
0
0
0
0
0
0
0
0
0
0
0
0
0
0
0
0
0
0
0
0
0
0
0
0
0
0
0
0
0
0
0
0
0
0
0
0
0
0
0
0
0
0
0
0
0
0
0
0
0
0
0
0
0
0
0
0
0
0
0
0
0
0
0
0
0
0
0
0
0
0
0
0
1
0
0
0
0
0
0
0
0
0
0
0
0
0
0
0
0
0
0
0
0
0
0
0
0
0
0
0
0
0
0
0
0
0
0
0
0
0
0
0
0
0
0
0
0
0
0
0
0
0
0
0
0
0
0
0
0
0
0
0
0
0
0
0
0
0
0
0
0
0
0
0
0
0
0
0
0
0
0
0
0
0
0
0
0
0
0
0
0
0
0
0
0
0
0
0
0
0
0
0
0
0
0
0
0
0
0
0
0
0
0
0
0
0
0
0
0
0
0
0
0
0
0
0
1
0
0
0
0
0
0
0
0
0
0
0
0
0
0
0
0
0
0
0
0
0
0
0
0
0
0
0
0
0
0
0
0
0
0
0
0
0
0
0
0
0
0
0
0
0
0
0
0
0
0
0
0
0
0
0
0
0
0
0
0
0
0
0
0
0
0
0
0
0
0
0
0
0
0
0
0
0
0
0
0
0
1
0
0
0
0
0
0
0
1
0
0
0
0
0
0
0
0
0
0
0
0
0
0
0
0
0
0
0
0
0
0
0
0
0
0
0
0
0
0
0
0
0
0
0
0
0
1
0
0
0
0
0
0
0
0
0
0
0
0
0
0
0
0
0
0
0
0
0
1
0
0
0
0
0
0
0
0
0
0
0
0
1
1
0
0
0
0
0
0
0
0
0
0
0
0
0
0
0
1
1
0
1
0
0
0
0
0
0
0
0
0
1
0
0
0
0
0
0
1
0
0
0
0
0
0
0
0
0
0
1
0
0
0
0
1
0
1
0
0
0
0
0
0
0
1
0
0
0
1
0
0
0
1
0
1
1
0
0
1
1
0
0
0
1
0
0
0
1
0
0
0
0
0
0
0
0
0
1
0
0
0
0
0
0
1
0
0
0
0
0
0
0
0
0
0
0
0
0
0
0
0
0
0
0
0
0
0
0
0
0
0
0
1
0
0
1
0
0
0
0
0
0
0
0
0
0
0
0
0
0
0
0
0
0
1
0
0
1
0
0
0
0
0
0
0
0
0
0
0
1
0
0
1
0
0
0
0
0
0
0
0
0
0
0
1
1
0
0
0
0
0
0
0
0
0
0
0
0
1
0
0
0
0
0
0
0
0
0
0
0
0
0
0
0
0
0
1
0
0
0
0
0
0
0
0
0
0
0
0
0
0
0
0
0
1
0
0
0
0
0
0
0
0
0
0
0
0
0
0
0
0
0
0
0
0
0
0
0
0
0
0
0
0
0
0
0
0
0
0
0
0
0
0
0
0
1
0
0
0
0
0
0
0
0
0
0
0
0
0
0
0
0
0
0
0
0
0
0
0
0
0
0
0
0
0
0
0
0
0
0
0
0
0
0
0
0
0
0
0
0
0
1
0
0
0
0
0
0
0
0
0
0
0
0
0
0
0
0
0
0
0
0
0
0
0
0
0
0
0
0
0
0
0
0
0
0
0
0
0
0
0
0
0
0
0
0
0
0
0
1
0
0
0
0
0
0
0
0
0
0
1
0
0
0
0
0
0
0
0
0
0
0
0
0
0
0
1
0
0
1
0
0
0
0
0
0
0
0
0
0
0
0
0
0
0
0
0
0
0
0
0
0
0
1
0
0
0
0
0
0
0
0
0
0
0
0
0
0
0
0
0
0
0
0
0
0
0
0
0
0
0
0
0
0
0
0
0
0
0
1
0
0
0
0
0
0
0
0
0
0
0
0
0
0
0
0
0
0
0
0
0
0
0
0
0
0
0
0
0
0
0
0
0
0
0
0
0
0
0
0
0
0
0
0
0
0
0
0
0
0
0
0
0
0
0
0
0
0
0
0
0
0
0
0
0
0
0
0
0
0
0
0
0
0
0
0
1
0
0
0
0
0
0
0
0
0
0
0
0
0
0
0
0
0
0
0
0
0
0
0
0
0
0
0
0
0
0
0
0
0
0
0
0
0
0
0
1
0
0
0
0
0
0
0
0
0
0
0
0
1
1
0
0
0
0
0
0
0
0
0
0
0
0
0
0
0
0
0
0
0
0
0
0
0
0
0
0
0
0
0
0
0
0
0
0
0
0
0
0
0
0
0
0
0
0
0
0
0
0
0
0
0
0
0
0
0
0
0
0
0
0
0
0
0
0
0
0
0
0
0
0
0
0
0
0
0
0
0
0
0
0
0
0
0
0
0
0
0
0
0
0
0
0
0
0
0
0
0
0
0
0
0
1
0
1
0
0
0
0
0
0
0
1
1
1
1
0
0
0
0
0
0
0
0
0
0
0
0
0
0
0
0
0
0
0
0
0
0
0
0
0
0
0
0
1
1
0
0
0
0
0
0
0
0
0
0
0
0
0
0
0
0
0
0
1
0
0
0
0
0
0
0
1
1
0
1
1
0
0
1
0
0
0
0
0
0
0
1
0
1
0
0
0
0
0
0
0
0
0
0
0
0
0
0
0
0
0
0
0
0
0
0
0
0
0
0
0
1
1
0
0
0
1
1
0
0
0
0
1
0
0
1
0
1
0
0
0
0
0
1
0
0
0
1
0
0
0
0
0
0
0
0
0
0
0
0
0
0
0
0
0
0
0
0
0
0
0
0
0
0
0
1
0
0
0
0
0
0
1
0
0
0
0
0
0
0
0
0
0
0
0
0
0
0
0
0
0
0
0
0
0
0
0
0
0
0
0
0
1
0
1
0
0
0
0
0
0
0
1
0
0
0
0
0
0
0
0
0
0
0
1
0
0
0
0
0
0
0
0
0
1
0
0
0
0
0
0
0
1
0
0
0
0
0
0
0
1
0
0
0
0
0
0
0
0
0
0
0
0
0
0
0
0
0
0
0
1
0
1
0
0
0
0
0
1
0
0
0
0
0
0
0
0
0
0
0
0
0
0
0
0
0
0
0
0
0
0
0
0
0
1
0
1
0
0
0
0
0
0
0
0
0
1
0
0
0
0
0
1
0
0
0
0
0
0
0
0
0
0
0
0
0
0
0
1
0
0
0
0
0
0
0
0
1
0
0
0
0
0
0
0
0
0
0
0
0
0
0
0
0
0
0
0
0
0
0
0
0
0
0
0
0
0
0
1
0
0
0
0
0
0
0
0
0
0
0
0
0
0
0
0
1
0
0
0
0
0
0
0
0
1
0
0
0
0
0
0
0
0
0
1
0
0
0
0
0
1
0
0
0
0
0
0
0
0
0
0
0
0
0
0
0
0
0
0
0
1
0
0
0
0
0
0
1
0
0
0
0
0
0
0
0
1
0
0
0
0
0
0
0
0
0
0
0
0
0
0
1
0
0
1
0
0
0
1
0
0
0
0
0
0
0
0
0
0
0
0
0
0
0
0
1
0
0
0
0
0
0
0
0
0
0
1
0
1
0
0
0
0
0
0
1
0
0
0
0
0
0
0
0
0
0
0
0
0
0
0
0
0
0
0
0
0
0
0
0
0
0
0
1
1
0
0
0
0
0
0
1
0
0
0
0
0
0
0
0
0
0
0
0
0
1
0
0
0
0
0
0
0
1
0
0
0
0
0
0
0
0
0
0
0
0
0
0
0
0
0
0
0
0
0
0
0
0
0
0
0
1
0
0
0
0
0
0
0
0
0
0
1
0
0
1
0
0
0
0
0
0
0
0
0
0
0
0
0
0
0
0
0
0
0
0
0
0
0
0
0
0
0
0
0
1
0
0
0
0
0
0
0
1
0
0
0
0
0
0
0
1
0
0
0
0
1
0
0
0
0
0
0
0
0
0
0
0
1
0
1
0
0
0
1
0
				</DataArray>
				<DataArray type="Float64" Name="h" NumberOfComponents="1" Format="ascii">
1.2161229618
1.2161565363
1.2065469559
1.2131312009
1.2062713767
1.2080771638
1.2102206779
1.2185554937
1.2127343172
1.2258301136
1.2162439380
1.2086395393
1.2207105072
1.2192663670
1.2188300548
1.2279932263
1.2105107955
1.2251321600
1.2176889271
1.2162727292
1.2037914244
1.2205375747
1.2125115577
1.2037501008
1.2133959359
1.2314420757
1.2166602328
1.2048252257
1.2079597767
1.2223144389
1.2192206048
1.2109510364
1.2221696859
1.2060309747
1.1980254762
1.2038346841
1.2003219130
1.2123696241
1.2057691813
1.2028287124
1.2064761027
1.2024797065
1.2152062009
1.2082003744
1.2025817127
1.2050318565
1.2107542418
1.1979240521
1.2066969450
1.2075560947
1.2021923312
1.2045063955
1.2067122644
1.2014073999
1.2013795074
1.2144345795
1.2039010457
1.1965408804
1.1977840576
1.1994565892
1.1960775244
1.1958595603
1.2045919797
1.2031225649
1.2068209440
1.2040426302
1.2083068024
1.2054818228
1.1963699729
1.1961689264
1.1969873946
1.2002239059
1.2120372384
1.2013801414
1.1991538012
1.2067148333
1.1972006022
1.1974470089
1.1964997954
1.2062301917
1.1963620945
1.2037594126
1.2090467653
1.2063105575
1.2071089442
1.2064167002
1.1970502465
1.2071833973
1.1991697036
1.2104071099
1.1990202747
1.2062384403
1.1969786184
1.2114615004
1.2058586896
1.2056372691
1.2082372548
1.2066828294
1.2052824863
1.1976501867
1.2085998652
1.1965173229
1.2050750304
1.1967475916
1.2335438475
1.2092353990
1.2080547085
1.2073646605
1.1982975408
1.2048277649
1.2106686140
1.2097829169
1.1989528304
1.2012899591
1.2040755702
1.2000180532
1.2039397336
1.2292962144
1.2019762331
1.2031282391
1.2319201542
1.2070409935
1.2077701173
1.2342257960
1.2010217072
1.2057063432
1.2028491061
1.2369643034
1.1984353448
1.2015938743
1.1994545380
1.2072211472
1.2018689223
1.1982006202
1.2285646506
1.2005750288
1.2365447590
1.1989357696
1.1970786922
1.2264583486
1.2397618478
1.2310860316
1.1990330183
1.2207845508
1.2073234464
1.1983237370
1.2319721853
1.2020602262
1.2341321472
1.2008587856
1.2384231302
1.1981080426
1.1986064095
1.1981436346
1.1965388423
1.2005119821
1.1987942965
1.2369148688
1.1997172836
1.2435085806
1.2236625270
1.2008210305
1.2342482491
1.2409298083
1.2375487142
1.2031009173
1.2154798605
1.2293787634
1.2383731365
1.1999056049
1.1986165170
1.2418413551
1.1983892803
1.2389978675
1.2131303745
1.1978309306
1.2180519286
1.2056269043
1.1983785809
1.2423046107
1.2017632035
1.2095005827
1.2447377289
1.2090658736
1.2431036879
1.2440511853
1.2112298841
1.1988725554
1.2399491500
1.2448402475
1.2073741510
1.1985298200
1.2457577317
1.2083765648
1.1980157595
1.2055801798
1.2432629175
1.2068490985
1.2069730364
1.2016880477
1.2451325838
1.2101753277
1.2444406887
1.1996944854
1.2080246938
1.2480876403
1.2304101662
1.2400549453
1.2072233334
1.2187178676
1.2070732134
1.2446445068
1.2453258358
1.2495504420
1.2357211515
1.2063779476
1.2245545011
1.2463862960
1.2095280828
1.2470863323
1.2090864898
1.2140543335
1.2135188315
1.2149734801
1.2122195088
1.2058198175
1.2116148572
1.2141393200
1.2107597731
1.2130182263
1.2022260377
1.2147104928
1.2132918262
1.2036012480
1.2079305567
1.2147077360
1.2061060038
1.2279218091
1.2483488777
1.2155494575
1.2049973054
1.2390391733
1.2485151225
1.2156347040
1.2379786088
1.2273404877
1.2480258982
1.2076219643
1.2339028315
1.2463725304
1.2216015621
1.2067685373
1.2455830436
1.2064860835
1.2053399128
1.2500943030
1.2213182295
1.2330525505
1.2495422216
1.2161705291
1.2104221843
1.2146827172
1.2174385826
1.2187580619
1.2136795002
1.2100572926
1.2102505864
1.2103532245
1.2052823227
1.2184572835
1.2163707541
1.2109041468
1.2149082938
1.2154467904
1.2161060381
1.2124486836
1.2162851964
1.2182455738
1.2188388024
1.2122888072
1.2136591502
1.2076363775
1.2078192999
1.2126131646
1.2176347084
1.2157497739
1.2146472226
1.2240775190
1.2480709597
1.2481587352
1.2242365779
1.2042270435
1.2367650671
1.2363464811
1.2109305082
1.2024322156
1.2120120049
1.2307871709
1.2454719214
1.2500864127
1.2498767462
1.2306057843
1.2047743013
1.2039260753
1.2058141880
1.2172151336
1.2028791047
1.2178089812
1.2451277198
1.2172650982
1.2189686744
1.2208755466
1.2097616982
1.2116464355
1.2212304677
1.2201327078
1.2059503509
1.2194660886
1.2152366011
1.2074947017
1.2226589959
1.2164662999
1.2228727554
1.2149470719
1.2193671753
1.2179077329
1.2219465544
1.2125669466
1.2197445245
1.2200401075
1.2184201031
1.2176664918
1.2124128510
1.2142978934
1.2229873564
1.2144603396
1.2222915091
1.2196546049
1.2310599778
1.2046290475
1.1989806391
1.2069194670
1.2472629736
1.2017844613
1.2330133876
1.2185325974
1.2333400059
1.2468159624
1.2361665916
1.2302152586
1.2022661846
1.2361792623
1.2267415992
1.2436850631
1.2376911970
1.2110699107
1.2365870432
1.1980432023
1.2127734491
1.2395432849
1.2369654930
1.2361551278
1.2498691195
1.2010103832
1.2049466537
1.2260880181
1.2230685239
1.2313937430
1.2340570191
1.2487154904
1.2391775938
1.2408662459
1.2434463108
1.2205090628
1.2241574292
1.2266152765
1.2200599144
1.2271235032
1.2260602172
1.2201065393
1.2132595252
1.2240106839
1.2148370199
1.2000292436
1.2272376291
1.2027925065
1.2194088922
1.2226021070
1.2244206864
1.1694340110
1.2176531206
1.2165934078
1.2235689557
1.2167673304
1.2228603167
1.2271315913
1.2207078170
1.1928978418
1.1821851223
1.1902739745
1.2226179050
1.2232054468
1.1782905715
1.2243199809
1.2037243490
1.2177124012
1.2268916564
1.2168514293
1.2212535423
1.1707922524
1.2257186269
1.2271779639
1.2327213650
1.2346253322
1.2132878923
1.2350456962
1.2324548259
1.2002521998
1.2367468394
1.2261881072
1.2281155369
1.2175703181
1.2287455946
1.2367937220
1.2381494964
1.2313740382
1.2282597974
1.2453574083
1.2409066743
1.1991769230
1.2324251388
1.2406636085
1.2400276261
1.2404403664
1.2380578940
1.2352881619
1.2480881586
1.2328097709
1.2302247268
1.2333146393
1.2390958875
1.2464676926
1.2211760299
1.2466645626
1.2399985431
1.2059794690
1.2284608940
1.2446177678
1.2322331286
1.2445854379
1.2437055025
1.2256809302
1.2487082315
1.2230555693
1.1965945120
1.2175721226
1.2452815226
1.2443724044
1.2419950789
1.2460057359
1.2409731311
1.2044472371
1.2050041417
1.2202273532
1.1968881239
1.2282088306
1.2301380776
1.2226145284
1.2034377471
1.2223415872
1.2252052791
1.1922168128
1.2284765207
1.1919518649
1.2156021786
1.2263211541
1.2502117593
1.1669078577
1.2421015172
1.2224618037
1.2139529259
1.2050620318
1.2136908879
1.2230122544
1.2537884479
1.2511318474
1.2279112943
1.2039087368
1.2274576545
1.1822843642
1.2462143320
1.2196612327
1.2526544993
1.2367602651
1.2207035644
1.1737220952
1.1974558935
1.2537608561
1.2285614428
1.2038247567
1.2525574763
1.2509638668
1.1651833863
1.1821832639
1.1902742870
1.1902264422
1.2247531569
1.2463528122
1.2141751450
1.2498003885
1.2039121418
1.1971410712
1.2495162108
1.1922167093
1.2388244638
1.2420940323
1.2471209510
1.2367095101
1.2402021035
1.1874870799
1.1971442866
1.2407653198
1.2431394202
1.2337678991
1.2015816642
1.2479640532
1.1981656909
1.2456632098
1.2298799139
1.1934361871
1.2442602172
1.2050021035
1.2429574207
1.2201800043
1.2223353177
1.2012744133
1.2367522000
1.1974551986
1.2463462228
1.2298807307
1.2050668692
1.1867479988
1.1659446942
1.2442987023
1.1646517247
1.1932821483
1.2104245425
1.1919533173
1.1739222949
1.1739905128
1.2448998945
1.1622334641
1.2109745339
1.2261877206
1.2350135140
1.2348902485
1.2025345957
1.1834885512
1.2446466265
1.2437117091
1.1873949615
1.1931176082
1.2443764178
1.2136867590
1.2149333302
1.2328114960
1.1902267987
1.2301392456
1.2510223876
1.2256952730
1.1853381566
1.2477511898
1.2506079033
1.2487643324
1.2261958132
1.2345064760
1.2187087854
1.2438251720
1.2495184141
1.1840679404
1.1826193679
1.2322293715
1.2525593323
1.1879768905
1.2478759881
1.2109677243
1.2302371132
1.2327191094
1.2284662118
1.1707999200
1.2282746539
1.2066719178
1.1694530627
1.2183754755
1.1654876748
1.2230637242
1.1936714077
1.2395764314
1.2520453027
1.1756821268
1.2177165420
1.1786927601
1.2508414753
1.1906141956
1.2313714760
1.1641955024
1.1847365717
1.2529429249
1.2324606482
1.1730154824
1.1737695615
1.2203780564
1.2527317686
1.1768736765
1.2438257973
1.2006228277
1.2522038906
1.2201750996
1.1853383996
1.1934388141
1.2015793883
1.2432325404
1.2407128726
1.2282552991
1.2401956567
1.1782616065
1.1715537384
1.2570604208
1.2350068392
1.1654945912
1.1847362182
1.1693102340
1.1665473920
1.2025380257
1.1874864438
1.1873964117
1.2109710071
1.2558581850
1.2573874931
1.2542782529
1.2504967013
1.2442930100
1.1771661056
1.1968394790
1.1875096734
1.2509888431
1.2523475495
1.2261880411
1.1665137708
1.2529420537
1.1684315965
1.1776924328
1.2306937344
1.2039865579
1.1663341025
1.1791777322
1.1994123267
1.1932807930
1.2549656507
1.1840621437
1.2369803986
1.2142066498
1.2533880820
1.2565493063
1.2574977951
1.2538258168
1.1688620297
1.1758091507
1.2231644640
1.1933913144
1.2560513122
1.2568551300
1.2012744598
1.1708358061
1.1929811856
1.1671969944
1.2565950662
1.1670736562
1.1646853491
1.2607026456
1.2596087511
1.1683120546
1.1639986665
1.2576273093
1.1628928442
1.1654820076
1.1675805764
1.2589164062
1.2599132148
1.2597131927
1.1622341348
1.1669959080
1.1682915593
1.1727760388
1.1689227394
1.2584793652
1.2597446738
1.2549757915
1.2569149448
1.1661178257
1.2607699901
1.2617112402
1.1740903227
1.2573852282
1.2559264780
1.1730136080
1.2623876630
1.1622323126
1.2591573074
1.1816027690
1.1719005259
1.2623426420
1.1768715482
1.2610423635
1.2590378403
1.1931142005
1.2573242717
1.1921445425
1.1867298022
1.2562185495
1.2556292583
1.2154984580
1.2127383750
1.2112072722
1.2112315190
1.2127719686
1.2113745173
1.2086359716
1.2162324594
1.2156623493
1.2077700732
1.2080648863
1.2062833317
1.2077912333
1.2127518700
1.2188082341
1.2102073366
1.2222859285
1.2156797130
1.2113840878
1.2222174146
1.2251209980
1.2131409400
1.2065533506
1.2176497182
1.2223078121
1.2263087843
1.2081993278
1.2185732158
1.2314430973
1.2133911518
1.2258388451
1.2227864540
1.2207392957
1.2047259274
1.2252883871
1.2155512118
1.2222966363
1.2192179380
1.2222398536
1.2060318722
1.2221402396
1.2109101857
1.2195912024
1.2028246039
1.2063314877
1.2105099508
1.2280058271
1.2151637315
1.2057529739
1.2082001046
1.2263211885
1.2064545327
1.2192738476
1.2162742113
1.2047298545
1.2125589367
1.1982602275
1.2205706999
1.2009803908
1.2228160892
1.2037922736
1.2155971991
1.2173171356
1.2036320081
1.1979233247
1.2253056817
1.2025736817
1.2021914664
1.2107067215
1.2048431293
1.2037582880
1.2079919746
1.2038823240
1.2077536912
1.2166971100
1.1994684137
1.2283660285
1.2063442710
1.2013498452
1.1980945656
1.2196215670
1.2066800053
1.1982619504
1.2082786629
1.2040440436
1.2173615618
1.2009827396
1.2004884692
1.2036468470
1.2038487462
1.2067877238
1.2124136553
1.1986050567
1.1980262421
1.2045747081
1.2054592246
1.2026056712
1.2003226783
1.2031100613
1.2013574765
1.1975292536
1.1982694927
1.2082404811
1.2013666101
1.2003633864
1.2002194338
1.2120069221
1.1961214003
1.2088189397
1.2084871985
1.1994705184
1.1961736588
1.1980952645
1.2024922578
1.1971988763
1.1969847666
1.2002221028
1.1991453239
1.2077757884
1.2106520498
1.1963687679
1.1991393199
1.2283746904
1.1961680844
1.2004936076
1.1986079564
1.2050943760
1.2026174019
1.2049331614
1.1995038347
1.2090217492
1.2067208883
1.2045270399
1.2040639425
1.2050559441
1.2037515296
1.2062906776
1.2018792957
1.2083051931
1.2075824150
1.1960787595
1.1958605335
1.2106886763
1.1966298451
1.2002337519
1.1977884248
1.1986707479
1.2003707894
1.2068703364
1.2104338802
1.1975310496
1.1991402266
1.2002986465
1.2013879432
1.1969131099
1.1961215535
1.1961755334
1.2144665856
1.2026699567
1.1982697035
1.2088358717
1.2014156700
1.1982731150
1.1994626243
1.2062426545
1.1965415382
1.2085160688
1.1969753532
1.2049533710
1.1967467633
1.2052747739
1.2018860884
1.2080271540
1.1995075266
1.1965156200
1.2097627886
1.1977738309
1.2059014587
1.2040538148
1.2085779357
1.2083293358
1.1968371662
1.2066799631
1.1960469405
1.2056355933
1.2008468499
1.2090474625
1.1976482503
1.2092215537
1.2051004110
1.2071381846
1.2026770190
1.1982916940
1.2097513648
1.1966319894
1.1982761563
1.1989453339
1.2003035179
1.2067056249
1.2121891180
1.1986750242
1.1974508369
1.2104558701
1.1981298578
1.2068648497
1.2106351281
1.2048215489
1.1969151272
1.1977771752
1.2071515329
1.2025221826
1.1960482527
1.2064111365
1.2070321704
1.2003890453
1.1968375932
1.2321618131
1.2008525968
1.2059175383
1.2071088450
1.2062289479
1.1970514906
1.2090660093
1.1963633170
1.2039278127
1.1964998934
1.2097831816
1.2319232527
1.2071938733
1.2080337394
1.1981321855
1.2072232990
1.2112389224
1.2344962361
1.2056880483
1.1992419583
1.2001674227
1.1991775225
1.2058587701
1.2114937741
1.2022559719
1.2104360668
1.1990247443
1.2036204771
1.1960014539
1.2010075296
1.2028341096
1.2122187583
1.2015880965
1.2050846607
1.2045383379
1.2126147598
1.2025327971
1.2321598040
1.2003993952
1.2030747640
1.2285660703
1.2005692456
1.2018552667
1.2335397252
1.2082385006
1.2073299409
1.2114640407
1.2310911005
1.2021851784
1.2344902704
1.2022631997
1.2013002465
1.2073875669
1.2338951685
1.1960017382
1.2001752326
1.2040914764
1.2341391972
1.2112674422
1.1990303124
1.2360283200
1.2000190788
1.1992508095
1.1983224863
1.2036330384
1.2080471859
1.2319408522
1.2071951769
1.2125253862
1.1985563162
1.2045495513
1.2030894581
1.2398713768
1.1981685996
1.2061745567
1.1970190295
1.2031448769
1.2126368513
1.1981067151
1.2292958641
1.1977229812
1.2019849070
1.2257735747
1.2384396504
1.1986051507
1.1965379042
1.2338891831
1.2360209426
1.2293779808
1.2375584580
1.2022018275
1.1996877713
1.2319349045
1.2385303402
1.2020959748
1.2111678052
1.2114833352
1.2342191753
1.1984364799
1.2236482905
1.2347485917
1.2077581909
1.1994572873
1.2252882578
1.2342572022
1.1976288677
1.2008186593
1.2369557085
1.1997151952
1.1970194490
1.2365365128
1.1982015564
1.1992205868
1.2112483770
1.2061902603
1.1997407642
1.1989364065
1.1983875341
1.2226155493
1.2380366724
1.1970795059
1.2257737946
1.2125353783
1.2398540380
1.1985576869
1.2071854494
1.1977235682
1.1999027833
1.1976859506
1.1981696299
1.1986147502
1.2390104596
1.2008613410
1.2447479188
1.2101530038
1.2347413570
1.2385204561
1.2048497967
1.1990146647
1.1990371715
1.2208090441
1.2020641784
1.2319704176
1.2423169305
1.2021001460
1.2252865657
1.2111703210
1.2446102208
1.2397510913
1.2017587036
1.1976295294
1.2180307950
1.1971601032
1.2264719402
1.1996892513
1.2421485719
1.2399578909
1.2005135963
1.1987961644
1.2380199726
1.2109529401
1.1992221095
1.2287842592
1.2226133745
1.2112504326
1.2431116070
1.1997415499
1.1981447970
1.2369030554
1.1976867749
1.2112126459
1.2097363730
1.1980125983
1.2155050682
1.2421382115
1.2048595307
1.2055732394
1.2445986959
1.1990391965
1.1971608270
1.2032794064
1.2434179252
1.1990159371
1.2101509362
1.2408216997
1.1985266027
1.1976810545
1.2409175141
1.2031069791
1.2083708855
1.2039107284
1.2434986229
1.2101882137
1.1986987086
1.2418328032
1.2444493974
1.2131487299
1.1996912031
1.2109466290
1.2383653530
1.2451410519
1.2287791503
1.2069766478
1.1992256201
1.1983817277
1.2417720991
1.2434087411
1.2408118322
1.2446535553
1.2039137913
1.2032855787
1.2457226802
1.2074190666
1.2095093142
1.1976820271
1.1978340463
1.2097275071
1.2466597714
1.2461279286
1.2056337511
1.2453387368
1.2072307581
1.2073737597
1.2022232562
1.1987019272
1.2448317575
1.1992290101
1.2007204711
1.2005673891
1.2090550995
1.2440427011
1.1988757600
1.2090956713
1.2480364885
1.2273400390
1.2422775678
1.2379941411
1.2068442024
1.2461194487
1.2075383154
1.2461456997
1.2156219219
1.2436362525
1.2417573072
1.2061075947
1.2457485201
1.2475706787
1.2074320043
1.2432485857
1.2489364886
1.2330614653
1.2421935266
1.2064890784
1.2213086849
1.2455967731
1.2076189598
1.2466512558
1.2483573470
1.2457113716
1.2037710277
1.2086991776
1.2080196468
1.2007245732
1.2157190849
1.2108948732
1.2005706643
1.2160969267
1.2123008903
1.2078132579
1.2136280060
1.2098968912
1.2146563890
1.2103604994
1.2148740127
1.2016914690
1.2161489368
1.2136927965
1.2052796611
1.2120031599
1.2100436803
1.2154487688
1.2070743432
1.2242373890
1.2431926997
1.2470766209
1.2120050076
1.2042279645
1.2436204653
1.2075346166
1.2422614084
1.2473298124
1.2076587825
1.2363607036
1.2480815302
1.2461359267
1.2187338393
1.2400397682
1.2304093632
1.2480775230
1.2095364543
1.2306142218
1.2451414132
1.2475623000
1.2178036233
1.2047731886
1.2463735642
1.2063746651
1.2058140362
1.2412253854
1.2497895408
1.2245645177
1.2421772363
1.2357118175
1.2489282445
1.2147414604
1.2074900424
1.2093013714
1.2144667640
1.2179222125
1.2197478878
1.2132803359
1.2120262525
1.2079358299
1.2125547539
1.2107509574
1.2036048677
1.2146819341
1.2200200832
1.2183880907
1.2135336361
1.2037753397
1.2130528014
1.2147101962
1.2149923270
1.2116458203
1.2164786051
1.2189801423
1.2201245463
1.2122062805
1.2116405085
1.2099118587
1.2097569235
1.2086976842
1.2058208326
1.2149257716
1.2194373676
1.2168788746
1.2140911946
1.2141315294
1.2196564566
1.2416841527
1.2485048368
1.2473194671
1.2472731075
1.2279199932
1.2049973136
1.2075316237
1.2333520822
1.2076600345
1.2390245377
1.2069161718
1.2017834570
1.2155589518
1.2431771155
1.2267490262
1.2436978147
1.2497815760
1.2499482210
1.2338932691
1.2067726246
1.2049420396
1.2390548319
1.2053385432
1.2412096370
1.2127712329
1.2010097840
1.2216073731
1.2463592050
1.2168475595
1.2182363985
1.2212636040
1.2076407173
1.2124455747
1.2231815681
1.2188575837
1.2027903367
1.2176697771
1.2169079731
1.2196828127
1.2176948682
1.2101087917
1.2104304447
1.2235792671
1.2162704203
1.2243126854
1.2126259385
1.2194123540
1.2174237478
1.2226150173
1.2102550135
1.2093066419
1.2218646969
1.2187618037
1.2184874873
1.2164030903
1.2200364515
1.2148277532
1.2132502172
1.2241602530
1.2146726528
1.2239935882
1.2147056539
1.2350377548
1.2324200408
1.2078910326
1.2367469918
1.2240747330
1.2416695526
1.2333441506
1.2388151650
1.2002512376
1.2340056679
1.1991736376
1.2109352876
1.2390827924
1.2367904407
1.2360362035
1.2481486717
1.2024326480
1.2075397262
1.2287547667
1.2132901393
1.2367517575
1.2271730388
1.2281457001
1.2352868409
1.2453665005
1.2372880290
1.2396857986
1.2388579703
1.2343723659
1.2299220888
1.2044405089
1.2352182104
1.2307783197
1.2454589974
1.2310389057
1.2395502468
1.2059792497
1.2358914954
1.1965934849
1.2172176178
1.2406090596
1.2356376389
1.2337586442
1.2499406597
1.2028809370
1.2039281780
1.2354388087
1.2211818797
1.2390409279
1.2232438177
1.2319233472
1.2334049163
1.2492389146
1.2383326793
1.2394616102
1.2409838123
1.1707866001
1.2229940519
1.2117844556
1.2229924835
1.2093231195
1.2247184352
1.2274663488
1.2176853689
1.2224660459
1.2182585498
1.1891485522
1.2278979718
1.1822867097
1.1812464543
1.2196512669
1.2218907725
1.2143030222
1.1843206092
1.2223169963
1.2103989162
1.2124185702
1.1968873938
1.2285621984
1.2059544202
1.2193581125
1.2219331403
1.1647411048
1.2247535632
1.1651842086
1.2202140571
1.2155909409
1.2226525366
1.2177159172
1.2251861200
1.2282154341
1.2197086229
1.2296761561
1.2250265581
1.1887690087
1.2268126351
1.1781296954
1.1886003399
1.2226085875
1.2212589680
1.2101196718
1.1756821352
1.2228897960
1.2034372912
1.2152474149
1.2284699033
1.2172634095
1.2208616881
1.1669082282
1.2263274099
1.2271391987
1.2469333309
1.2315003525
1.2296505244
1.2367074466
1.2340101286
1.2407620951
1.2446742656
1.2185295726
1.2329992651
1.2461881079
1.2307567794
1.2329900352
1.2370090228
1.2046305023
1.2356151704
1.2261180988
1.2281484892
1.2319312123
1.2185316392
1.2421037459
1.2330027431
1.2352461088
1.2360447393
1.2305669866
1.2446433450
1.2356145763
1.2442574557
1.2258436722
1.2468066559
1.2195148477
1.2396883575
1.1989826939
1.2230720717
1.2281137798
1.2448945240
1.2437068846
1.2319345150
1.2429541781
1.2425767892
1.2390843118
1.2388204887
1.2466644209
1.2388457343
1.2079032407
1.2372911730
1.2344819080
1.2381416927
1.2302214929
1.2469517455
1.2313598891
1.2409045071
1.2280145293
1.2327188621
1.2313974390
1.2381793723
1.2455266118
1.2260808773
1.2333549381
1.2476231748
1.2316081619
1.2408786084
1.2110700770
1.2369669947
1.2280996652
1.2231986256
1.2231969992
1.2435777518
1.2354278783
1.2361729547
1.2376981718
1.2312235468
1.2434636796
1.2427646960
1.2230959059
1.2492318659
1.2233617129
1.2380542541
1.2395451904
1.1980440478
1.2185346851
1.2432265007
1.2429223305
1.2340608519
1.2410967371
1.2409206029
1.2383346506
1.2394655489
1.2474780743
1.2434348157
1.2022724589
1.2358952003
1.2361792865
1.2110338573
1.2176610648
1.2527290488
1.2508376166
1.2268303081
1.2000305139
1.2139487715
1.2271292981
1.1781276569
1.2477497395
1.2295405494
1.2226178995
1.2037250206
1.2520413170
1.2344731009
1.2182543804
1.2275465060
1.2228793792
1.1659436092
1.1966588346
1.2529387270
1.2269051216
1.1999316053
1.2511212988
1.2511548835
1.1707863754
1.1928951880
1.1968727058
1.1968732991
1.1925861761
1.2166030147
1.2257091548
1.2486928731
1.1707920435
1.1950314199
1.2442454945
1.2271190903
1.2187029456
1.2474507231
1.2099490904
1.1933221859
1.2012663309
1.2128881012
1.2501213377
1.2195295820
1.2205244510
1.2529399171
1.2500126479
1.2260787033
1.2103089675
1.2266070955
1.1887662928
1.2453242538
1.2201123353
1.1950316100
1.2509846669
1.2400349856
1.2250222553
1.2301571314
1.2247387686
1.1694543966
1.2030259628
1.2526671859
1.2272434428
1.2099451186
1.2518090091
1.2500428099
1.1694333800
1.1891462598
1.1886004943
1.1725802439
1.1929242588
1.2117948156
1.2244146001
1.2491994796
1.1647403896
1.2474414353
1.2296718130
1.1997163634
1.2099342952
1.2491005221
1.2198095581
1.1999349218
1.1954378923
1.2486077790
1.2104250493
1.2344641245
1.1966584969
1.2370101218
1.2442374768
1.2461909286
1.2333159683
1.2099419493
1.1794791077
1.2358898128
1.1684779368
1.2372554966
1.1625757160
1.2420421924
1.1835760832
1.2398496979
1.2084268505
1.1954413880
1.1801083967
1.2398533968
1.2334066345
1.2421059952
1.1693979898
1.2352411664
1.2310515017
1.2388236703
1.2232491990
1.2420475178
1.1620446507
1.1950005629
1.2469363846
1.2356411659
1.2342442653
1.2025694264
1.2271331690
1.2283320047
1.2446771617
1.2391808857
1.2282337838
1.2280553762
1.2404357521
1.2129299282
1.1847668007
1.2310731804
1.2479522079
1.2319261903
1.2432446737
1.2466141229
1.1967435091
1.1898968937
1.2432471230
1.2433790396
1.2110311180
1.2064896213
1.2420533412
1.2140165768
1.2275390786
1.2408690750
1.2020408506
1.2400258446
1.2030248803
1.2320955961
1.2474350262
1.2455295163
1.2282349123
1.2456606909
1.2012723736
1.1868568664
1.2390986200
1.1642932133
1.2425151881
1.1639995861
1.1876431396
1.2049241465
1.1925872915
1.1734035285
1.2346218807
1.2419984911
1.2400002371
1.1719025995
1.2361634238
1.2479609318
1.2425826108
1.1606187355
1.2042830682
1.2466674331
1.2275296008
1.1991459190
1.2308404527
1.2435804576
1.2466092822
1.2320949300
1.2357638920
1.2077536516
1.1816054207
1.2469552413
1.2460104484
1.1883710570
1.1905616065
1.2445883069
1.2466684482
1.2195244953
1.2161430871
1.2437084705
1.2230561640
1.2301494092
1.2313654033
1.1929243721