<VTKFile type="UnstructuredGrid" version="0.1">
	<UnstructuredGrid>
		<Piece NumberOfPoints="1862" NumberOfCells="3498">
			<CellData>
				<DataArray type="Int32" Name="type" NumberOfComponents="1" Format="ascii">
0
0
0
0
0
0
0
0
0
0
0
0
0
0
0
0
1
0
0
1
0
0
0
0
0
0
0
0
0
0
0
0
0
1
0
0
0
0
0
0
0
0
0
0
0
0
0
0
0
0
1
0
0
0
0
0
0
0
0
0
0
1
0
0
0
0
0
0
0
0
0
0
0
0
0
0
0
0
0
0
0
0
0
0
0
0
0
0
0
0
0
0
0
0
0
0
0
0
0
0
0
0
0
0
0
0
0
0
0
0
0
0
0
0
0
0
0
0
0
0
0
0
0
1
0
0
0
0
0
0
0
0
0
0
0
0
0
0
0
0
0
0
0
0
0
0
0
0
0
0
0
1
0
1
1
0
0
0
0
0
0
0
0
0
0
0
0
0
1
0
1
0
0
0
0
1
0
0
0
0
0
0
0
0
1
1
0
0
0
0
0
1
0
0
0
0
0
0
0
0
1
0
0
0
0
0
0
0
0
0
0
0
0
0
0
0
0
0
0
0
0
0
0
0
0
0
0
0
0
0
0
0
0
1
0
0
0
0
0
0
0
0
0
0
0
0
0
0
0
0
0
0
0
0
0
0
0
0
0
0
0
0
0
0
0
0
0
0
0
0
0
0
0
0
0
0
0
0
0
0
0
1
0
0
0
0
0
0
0
0
0
0
0
0
0
0
0
0
0
0
0
0
0
0
0
0
0
0
0
0
0
0
0
0
0
0
0
0
0
0
0
0
0
0
0
0
0
0
0
0
0
0
1
0
0
0
0
0
0
0
0
0
0
0
0
0
0
0
0
0
0
0
0
0
0
0
0
0
0
0
0
0
0
0
0
0
0
0
0
0
0
0
0
0
0
0
0
0
0
0
0
0
0
0
0
0
0
0
0
0
1
0
0
0
0
0
0
0
0
0
0
0
0
0
0
0
0
0
0
0
0
0
0
0
0
0
0
0
0
0
0
0
0
0
0
0
0
0
0
0
0
0
0
0
0
0
0
0
0
0
0
0
0
0
0
0
0
0
0
0
0
0
0
0
0
0
0
0
0
0
0
0
0
0
0
0
0
0
0
0
0
0
0
0
0
0
0
0
0
0
0
0
0
0
0
0
0
0
0
0
0
0
0
0
0
0
0
0
0
0
0
0
0
0
0
0
0
0
0
0
0
0
0
0
0
0
0
0
0
0
0
0
0
1
0
0
0
0
0
0
0
0
0
0
0
0
0
0
0
0
0
0
0
1
0
0
0
0
0
0
0
0
0
0
0
0
0
0
0
0
0
0
0
0
0
0
0
0
0
0
0
0
0
0
0
0
0
0
0
0
0
0
0
0
0
0
0
0
0
0
0
0
0
0
0
0
0
1
0
0
0
0
0
0
0
0
0
0
0
0
0
0
0
0
0
0
0
0
0
0
0
1
0
0
0
0
0
0
0
0
0
0
0
0
0
0
0
0
0
0
0
1
0
0
0
1
0
0
0
0
0
0
0
0
0
0
0
0
0
0
0
0
0
0
0
0
0
0
0
0
0
1
0
0
0
0
0
0
0
1
0
0
0
0
0
0
0
0
0
0
0
0
0
0
0
0
0
0
0
0
0
0
0
0
0
0
1
0
0
0
0
0
0
0
1
0
0
0
0
0
0
1
0
0
0
0
0
0
0
0
0
0
0
0
0
0
0
0
0
0
0
0
0
0
0
0
0
0
0
0
0
0
0
0
0
0
0
0
0
0
1
0
0
0
0
0
1
0
0
0
0
0
0
0
1
0
0
0
0
0
0
0
0
0
0
0
0
0
1
0
0
0
0
0
0
0
0
0
0
0
0
0
0
0
0
0
0
0
0
0
0
0
0
0
0
0
0
0
0
0
0
0
0
0
0
0
0
0
0
0
0
0
0
0
0
0
0
0
0
0
0
0
1
0
0
0
0
0
0
0
0
0
0
0
0
0
0
0
0
0
0
0
1
0
0
0
0
0
0
0
0
0
1
0
0
0
0
0
0
0
0
0
0
0
0
0
0
0
0
0
0
0
0
0
0
0
0
0
0
0
0
0
1
0
1
0
0
0
0
0
0
0
0
0
0
0
0
0
0
0
0
0
0
0
0
0
0
0
0
0
0
0
1
0
0
0
1
0
0
0
0
0
0
0
0
0
0
0
0
0
0
0
0
0
0
0
0
0
0
0
0
0
0
0
0
1
0
0
0
0
0
0
0
0
0
0
0
0
0
0
0
0
0
0
0
0
0
0
0
0
0
1
0
0
0
0
0
0
0
0
0
0
0
0
0
0
0
0
0
0
0
0
0
0
0
1
0
0
0
0
0
0
1
0
0
0
0
0
0
0
0
0
0
0
1
0
0
0
0
0
0
0
0
0
0
0
0
0
0
0
0
0
0
0
0
1
0
0
0
0
0
0
0
0
0
0
0
1
0
0
0
0
0
0
0
0
0
0
0
0
0
0
0
0
0
0
0
0
0
1
0
0
0
0
0
0
0
0
0
1
1
0
1
0
1
0
0
0
0
0
0
0
0
0
0
0
1
0
0
0
0
0
1
1
0
0
0
0
0
0
1
0
0
0
0
0
1
1
1
0
0
0
0
0
0
0
0
0
0
0
0
1
1
0
0
1
0
0
0
0
0
1
0
0
0
1
0
1
0
0
0
0
0
0
0
1
0
0
0
0
0
0
0
1
0
0
1
0
0
0
0
0
0
0
0
0
0
0
0
0
0
0
1
0
0
0
0
0
0
0
0
0
0
0
0
0
0
0
0
0
0
0
0
0
0
0
0
0
0
0
0
0
0
0
0
0
0
0
0
1
0
0
0
0
0
0
1
0
0
0
1
0
0
0
0
0
0
0
0
0
0
0
1
0
0
0
0
0
0
0
0
0
0
0
0
0
0
0
0
0
0
0
0
0
0
0
0
0
0
0
0
0
0
0
0
0
0
0
0
0
0
0
0
1
1
0
0
0
0
0
0
0
0
0
0
0
0
0
1
0
0
0
0
0
0
0
0
0
0
0
0
0
0
0
0
0
0
0
0
0
0
0
0
0
0
0
0
0
0
0
0
0
0
0
0
0
0
0
0
0
0
0
0
0
0
0
0
0
0
0
0
0
0
0
0
0
0
0
0
0
0
0
0
0
0
0
0
0
0
0
0
1
1
0
0
0
0
0
0
0
0
1
0
0
0
0
0
0
0
0
0
0
0
0
0
0
0
0
0
0
0
0
0
0
0
1
0
0
0
0
0
0
0
0
0
0
0
0
0
0
0
0
1
0
0
0
0
0
0
0
0
0
0
0
0
0
0
0
0
0
0
0
0
0
0
0
0
0
0
0
0
0
0
0
0
0
0
0
0
0
0
0
0
0
0
0
0
0
0
0
0
0
0
0
0
0
0
0
0
0
0
0
0
0
0
0
0
0
0
0
0
0
0
0
0
0
0
0
0
0
0
0
0
0
0
0
0
0
0
0
0
0
0
1
1
0
0
0
0
0
1
0
0
0
0
0
0
0
0
0
0
0
0
1
0
0
0
0
0
0
0
0
0
0
0
0
0
0
0
0
0
0
0
0
0
0
0
0
0
0
0
0
0
0
0
0
0
0
0
0
0
0
0
0
0
0
0
0
0
0
0
0
0
0
0
0
0
1
0
1
0
0
0
0
0
0
0
0
0
0
0
0
0
0
0
0
0
0
1
0
0
0
0
0
0
0
0
0
0
0
0
0
0
0
0
0
0
0
0
0
0
0
0
0
0
0
0
0
0
0
0
0
0
0
0
0
0
0
0
0
0
0
0
0
0
0
0
0
0
0
0
0
0
0
0
0
0
0
0
0
0
0
0
0
0
0
0
0
0
1
0
0
0
0
0
0
0
0
0
0
1
0
0
0
0
0
0
0
0
0
0
0
0
0
0
0
0
0
0
0
0
0
0
0
0
0
0
0
0
0
0
0
0
0
0
0
0
0
1
0
0
0
0
0
0
0
0
0
0
0
0
0
0
0
0
0
0
0
0
0
0
0
0
0
0
0
0
0
0
0
0
0
0
0
0
0
0
0
0
0
0
0
0
0
0
0
0
0
0
0
0
0
0
0
0
0
0
0
0
0
0
0
0
0
0
0
0
0
0
0
0
0
0
0
0
0
0
0
0
0
1
0
0
0
0
0
0
0
0
0
0
0
0
0
0
0
0
0
0
0
0
0
0
0
0
0
0
0
0
0
0
0
0
0
0
0
0
0
0
0
0
0
0
0
0
0
0
0
0
0
0
0
0
0
0
0
0
0
0
0
0
0
0
0
0
0
0
0
0
0
0
0
0
0
0
0
0
0
0
0
0
0
0
0
0
0
0
0
0
0
0
0
0
0
0
0
0
0
0
0
0
0
0
0
0
0
0
0
0
0
0
0
0
0
0
0
0
0
0
0
0
0
0
0
1
0
0
0
0
0
0
0
0
0
0
0
0
0
0
0
0
0
0
0
0
0
0
0
0
0
0
0
0
0
0
0
0
0
0
0
0
0
0
0
0
0
0
0
0
0
0
0
0
0
0
0
0
0
0
0
0
0
0
0
0
0
0
0
0
0
0
0
0
0
0
0
0
0
0
0
0
0
0
0
0
0
1
0
0
0
0
0
0
0
1
0
0
0
0
0
0
0
0
0
0
0
0
0
0
0
0
0
0
0
0
0
0
0
0
0
0
0
0
0
0
0
0
0
0
0
0
0
1
0
0
0
0
0
0
0
0
0
0
0
0
0
0
0
0
0
0
0
0
0
1
0
0
0
0
0
0
0
0
0
0
0
0
1
1
0
0
0
0
0
0
0
0
0
0
0
0
0
0
0
1
1
0
1
0
0
0
0
0
0
0
0
0
1
0
0
0
0
0
0
1
0
0
0
0
0
0
0
0
0
0
1
0
0
0
0
1
0
1
0
0
0
0
0
0
0
1
0
0
0
1
0
0
0
1
0
1
1
0
0
1
1
0
0
0
1
0
0
0
1
0
0
0
0
0
0
0
0
0
1
0
0
0
0
0
0
1
0
0
0
0
0
0
0
0
0
0
0
0
0
0
0
0
0
0
0
0
0
0
0
0
0
0
0
1
0
0
1
0
0
0
0
0
0
0
0
0
0
0
0
0
0
0
0
0
0
1
0
0
1
0
0
0
0
0
0
0
0
0
0
0
1
0
0
1
0
0
0
0
0
0
0
0
0
0
0
1
1
0
0
0
0
0
0
0
0
0
0
0
0
1
0
0
0
0
0
0
0
0
0
0
0
0
0
0
0
0
0
1
0
0
0
0
0
0
0
0
0
0
0
0
0
0
0
0
0
1
0
0
0
0
0
0
0
0
0
0
0
0
0
0
0
0
0
0
0
0
0
0
0
0
0
0
0
0
0
0
0
0
0
0
0
0
0
0
0
0
1
0
0
0
0
0
0
0
0
0
0
0
0
0
0
0
0
0
0
0
0
0
0
0
0
0
0
0
0
0
0
0
0
0
0
0
0
0
0
0
0
0
0
0
0
0
1
0
0
0
0
0
0
0
0
0
0
0
0
0
0
0
0
0
0
0
0
0
0
0
0
0
0
0
0
0
0
0
0
0
0
0
0
0
0
0
0
0
0
0
0
0
0
0
1
0
0
0
0
0
0
0
0
0
0
1
0
0
0
0
0
0
0
0
0
0
0
0
0
0
0
1
0
0
1
0
0
0
0
0
0
0
0
0
0
0
0
0
0
0
0
0
0
0
0
0
0
0
1
0
0
0
0
0
0
0
0
0
0
0
0
0
0
0
0
0
0
0
0
0
0
0
0
0
0
0
0
0
0
0
0
0
0
0
1
0
0
0
0
0
0
0
0
0
0
0
0
0
0
0
0
0
0
0
0
0
0
0
0
0
0
0
0
0
0
0
0
0
0
0
0
0
0
0
0
0
0
0
0
0
0
0
0
0
0
0
0
0
0
0
0
0
0
0
0
0
0
0
0
0
0
0
0
0
0
0
0
0
0
0
0
1
0
0
0
0
0
0
0
0
0
0
0
0
0
0
0
0
0
0
0
0
0
0
0
0
0
0
0
0
0
0
0
0
0
0
0
0
0
0
0
1
0
0
0
0
0
0
0
0
0
0
0
0
1
1
0
0
0
0
0
0
0
0
0
0
0
0
0
0
0
0
0
0
0
0
0
0
0
0
0
0
0
0
0
0
0
0
0
0
0
0
0
0
0
0
0
0
0
0
0
0
0
0
0
0
0
0
0
0
0
0
0
0
0
0
0
0
0
0
0
0
0
0
0
0
0
0
0
0
0
0
0
0
0
0
0
0
0
0
0
0
0
0
0
0
0
0
0
0
0
0
0
0
0
0
0
1
0
1
0
0
0
0
0
0
0
1
1
1
1
0
0
0
0
0
0
0
0
0
0
0
0
0
0
0
0
0
0
0
0
0
0
0
0
0
0
0
0
1
1
0
0
0
0
0
0
0
0
0
0
0
0
0
0
0
0
0
0
1
0
0
0
0
0
0
0
1
1
0
1
1
0
0
1
0
0
0
0
0
0
0
1
0
1
0
0
0
0
0
0
0
0
0
0
0
0
0
0
0
0
0
0
0
0
0
0
0
0
0
0
0
1
1
0
0
0
1
1
0
0
0
0
1
0
0
1
0
1
0
0
0
0
0
1
0
0
0
1
0
0
0
0
0
0
0
0
0
0
0
0
0
0
0
0
0
0
0
0
0
0
0
0
0
0
0
1
0
0
0
0
0
0
1
0
0
0
0
0
0
0
0
0
0
0
0
0
0
0
0
0
0
0
0
0
0
0
0
0
0
0
0
0
1
0
1
0
0
0
0
0
0
0
1
0
0
0
0
0
0
0
0
0
0
0
1
0
0
0
0
0
0
0
0
0
1
0
0
0
0
0
0
0
1
0
0
0
0
0
0
0
1
0
0
0
0
0
0
0
0
0
0
0
0
0
0
0
0
0
0
0
1
0
1
0
0
0
0
0
1
0
0
0
0
0
0
0
0
0
0
0
0
0
0
0
0
0
0
0
0
0
0
0
0
0
1
0
1
0
0
0
0
0
0
0
0
0
1
0
0
0
0
0
1
0
0
0
0
0
0
0
0
0
0
0
0
0
0
0
1
0
0
0
0
0
0
0
0
1
0
0
0
0
0
0
0
0
0
0
0
0
0
0
0
0
0
0
0
0
0
0
0
0
0
0
0
0
0
0
1
0
0
0
0
0
0
0
0
0
0
0
0
0
0
0
0
1
0
0
0
0
0
0
0
0
1
0
0
0
0
0
0
0
0
0
1
0
0
0
0
0
1
0
0
0
0
0
0
0
0
0
0
0
0
0
0
0
0
0
0
0
1
0
0
0
0
0
0
1
0
0
0
0
0
0
0
0
1
0
0
0
0
0
0
0
0
0
0
0
0
0
0
1
0
0
1
0
0
0
1
0
0
0
0
0
0
0
0
0
0
0
0
0
0
0
0
1
0
0
0
0
0
0
0
0
0
0
1
0
1
0
0
0
0
0
0
1
0
0
0
0
0
0
0
0
0
0
0
0
0
0
0
0
0
0
0
0
0
0
0
0
0
0
0
1
1
0
0
0
0
0
0
1
0
0
0
0
0
0
0
0
0
0
0
0
0
1
0
0
0
0
0
0
0
1
0
0
0
0
0
0
0
0
0
0
0
0
0
0
0
0
0
0
0
0
0
0
0
0
0
0
0
1
0
0
0
0
0
0
0
0
0
0
1
0
0
1
0
0
0
0
0
0
0
0
0
0
0
0
0
0
0
0
0
0
0
0
0
0
0
0
0
0
0
0
0
1
0
0
0
0
0
0
0
1
0
0
0
0
0
0
0
1
0
0
0
0
1
0
0
0
0
0
0
0
0
0
0
0
1
0
1
0
0
0
1
0
				</DataArray>
				<DataArray type="Float64" Name="h" NumberOfComponents="1" Format="ascii">
1.1476219151
1.1476095757
1.1498055511
1.1463564285
1.1506088626
1.1497981135
1.1482466835
1.1454422559
1.1479812969
1.1429685140
1.1454966354
1.1486265082
1.1461684035
1.1440606669
1.1460673108
1.1449333825
1.1470511326
1.1437124498
1.1477047352
1.1445214244
1.1510288388
1.1474725109
1.1501158159
1.1522520940
1.1459085683
1.1445009225
1.1499914268
1.1573491004
1.1516725356
1.1431281003
1.1434882815
1.1501202756
1.1475551863
1.1498143021
1.1568339183
1.1533747480
1.1538090720
1.1513524153
1.1572162049
1.1522506301
1.1516699593
1.1573909257
1.1499526544
1.1529012775
1.1533958737
1.1558694952
1.1513473614
1.1584869802
1.1705351645
1.1694892375
1.1526188076
1.1545349129
1.1528951635
1.1628770824
1.1562632857
1.1511521172
1.1558098068
1.1611286513
1.1625643072
1.1619022713
1.1646855148
1.1635381067
1.1696809040
1.1545828840
1.1541516449
1.1600109280
1.1684130320
1.1685402625
1.1635779337
1.1623072155
1.1624770328
1.1565897304
1.1524048575
1.1641721031
1.1632871772
1.1593722441
1.1613525302
1.1648136625
1.1597048189
1.1587912019
1.1668100772
1.1613336701
1.1734905776
1.1673459475
1.1572421097
1.1608659278
1.1678026455
1.1662006592
1.1657834860
1.1728653235
1.1685341047
1.1594833473
1.1658106356
1.1720934950
1.1624020767
1.1609968272
1.1650714240
1.1573176677
1.1587292988
1.1678429757
1.1729314417
1.1669409318
1.1638768708
1.1596149525
1.1411282470
1.1676075066
1.1632265287
1.1713994259
1.1648438961
1.1625019164
1.1712793762
1.1721764212
1.1673658819
1.1690054210
1.1651579721
1.1717352242
1.1639552129
1.1417545266
1.1709212691
1.1664353833
1.1408770678
1.1650966802
1.1615719692
1.1384900010
1.1679403255
1.1715200709
1.1652676751
1.1383778293
1.1710781291
1.1720194327
1.1703451156
1.1634488959
1.1666031890
1.1718828840
1.1409931968
1.1702792812
1.1431450440
1.1722607536
1.1688879855
1.1466236984
1.1386324362
1.1393722365
1.1709757437
1.1488892589
1.1618013312
1.1694898450
1.1447422344
1.1736734629
1.1392590290
1.1740361428
1.1422247772
1.1724362952
1.1727143332
1.1738903410
1.1679573253
1.1727450054
1.1736437860
1.1400196360
1.1738662903
1.1367501982
1.1478500669
1.1735084088
1.1439063204
1.1379637104
1.1392680378
1.1730506691
1.1511639002
1.1458235300
1.1371419755
1.1729747578
1.1733950832
1.1362642318
1.1737724975
1.1400310842
1.1522629756
1.1742363488
1.1500303924
1.1742544923
1.1742599222
1.1381820281
1.1727214928
1.1544673145
1.1368529565
1.1624901102
1.1358691635
1.1355652577
1.1534358448
1.1741280940
1.1367624799
1.1352743956
1.1566059317
1.1742946319
1.1359315227
1.1556989147
1.1741848212
1.1739837987
1.1393779464
1.1587083700
1.1578579603
1.1742923483
1.1351145010
1.1638574058
1.1354364504
1.1742286144
1.1608335699
1.1380176865
1.1461558946
1.1424582496
1.1599667324
1.1501865860
1.1564320179
1.1358454700
1.1388994502
1.1379273213
1.1442992800
1.1584453940
1.1481088013
1.1392122948
1.1543798272
1.1368072637
1.1621374631
1.1728489687
1.1522865448
1.1709108226
1.1647931510
1.1746550255
1.1740964406
1.1682640945
1.1630271536
1.1735603727
1.1743648625
1.1719672853
1.1665820900
1.1744882583
1.1746401090
1.1696382504
1.1572559448
1.1476055274
1.1366527386
1.1513978065
1.1570486289
1.1439384852
1.1394906078
1.1512383047
1.1435485857
1.1472652686
1.1389848181
1.1552686109
1.1457620897
1.1407258278
1.1494865722
1.1551837562
1.1402983119
1.1592579937
1.1589325272
1.1394787890
1.1492177872
1.1453813744
1.1379258733
1.1718805268
1.1533018996
1.1652638510
1.1687465417
1.1715208117
1.1661362111
1.1746967595
1.1750780811
1.1625881807
1.1745575468
1.1735339882
1.1747246981
1.1532653308
1.1735393780
1.1693809264
1.1707532291
1.1634591546
1.1670573899
1.1702254565
1.1726352436
1.1643583653
1.1741007391
1.1748275230
1.1747268268
1.1751420598
1.1742284130
1.1728015762
1.1678320131
1.1490514392
1.1405612106
1.1411568345
1.1486855871
1.1578232534
1.1455638250
1.1451009795
1.1525060758
1.1575704675
1.1523486047
1.1473055875
1.1423989859
1.1394771415
1.1412326104
1.1468782899
1.1559864804
1.1593430308
1.1597201803
1.1507885071
1.1558723806
1.1505128832
1.1418760922
1.1656787642
1.1698963026
1.1692393857
1.1749601903
1.1629559906
1.1753996544
1.1724993132
1.1541961719
1.1742219508
1.1756142096
1.1541710804
1.1721434084
1.1665798736
1.1742184735
1.1752496008
1.1675078206
1.1683148363
1.1707927698
1.1752053318
1.1713037381
1.1734720658
1.1747620964
1.1757369589
1.1752937186
1.1638447021
1.1732898803
1.1647641281
1.1749192092
1.1500690003
1.1777304817
1.1535157504
1.1580420750
1.1533552963
1.1423100974
1.1583163564
1.1472532870
1.1504649391
1.1467268603
1.1429702727
1.1780263838
1.1685331892
1.1597389111
1.1750601059
1.1483972446
1.1436127055
1.1787581334
1.1520129005
1.1710935718
1.1564811325
1.1517231063
1.1770676922
1.1770604266
1.1784949712
1.1412306389
1.1566139167
1.1601324917
1.1488721669
1.1651104879
1.1679751614
1.1721002977
1.1431335396
1.1743988433
1.1784748255
1.1442051143
1.1762443420
1.1731175530
1.1727617501
1.1758837520
1.1509864652
1.1761099898
1.1660938600
1.1633103372
1.1749071257
1.1754859805
1.1549916525
1.1749080966
1.1549752129
1.1669872150
1.1704168376
1.1697311211
1.1574892344
1.1758733126
1.1642590585
1.1718739744
1.1639250556
1.1764065421
1.1739507577
1.1535642595
1.1549327398
1.1557868693
1.1606499369
1.1679520616
1.1754513943
1.1594199150
1.1741301557
1.1621440541
1.1757886860
1.1756273021
1.1651331698
1.1687740572
1.1583927787
1.1713495299
1.1667441537
1.1754794040
1.1693222732
1.1513995963
1.1781348205
1.1769015982
1.1542786927
1.1761891455
1.1679034558
1.1660661021
1.1637576034
1.1483833692
1.1776723847
1.1788647125
1.1730468514
1.1771915847
1.1441888534
1.1778350001
1.1587976569
1.1703552919
1.1794569610
1.1757850281
1.1788574537
1.1728149100
1.1736867805
1.1801513469
1.1763178505
1.1773293875
1.1670611281
1.1702249699
1.1760297119
1.1499054959
1.1786240445
1.1697676047
1.1528531903
1.1697478344
1.1728344151
1.1743857269
1.1786401015
1.1765676482
1.1768302501
1.1431312797
1.1660539438
1.1571956493
1.1637577954
1.1804136404
1.1797139969
1.1736273844
1.1805230716
1.1454544014
1.1605738054
1.1526799331
1.1761170842
1.1557093109
1.1737436437
1.1714861701
1.1674077997
1.1622811836
1.1500396391
1.1765812776
1.1551647977
1.1756028252
1.1578094256
1.1637381406
1.1709372954
1.1816990451
1.1589629276
1.1461520645
1.1522480233
1.1531629211
1.1611350548
1.1513842141
1.1764571222
1.1818017235
1.1814661852
1.1761638560
1.1540627998
1.1724509084
1.1566160940
1.1718698287
1.1655374018
1.1824844244
1.1473554023
1.1535640143
1.1566358354
1.1539299302
1.1825985658
1.1747966202
1.1551220442
1.1789514057
1.1802950214
1.1581909913
1.1557872666
1.1606502750
1.1564359974
1.1692370800
1.1451335860
1.1631801955
1.1741884635
1.1540628055
1.1593556684
1.1768529064
1.1551652651
1.1679002807
1.1461499520
1.1773932537
1.1685635117
1.1468848231
1.1553939273
1.1593568497
1.1719454611
1.1711283488
1.1781457234
1.1531715106
1.1794687503
1.1577553295
1.1744920224
1.1658074817
1.1591734813
1.1777251012
1.1526801683
1.1751887217
1.1506829924
1.1500390384
1.1631187016
1.1473535903
1.1539302990
1.1451312805
1.1658075492
1.1611362992
1.1621929221
1.1593246374
1.1459835571
1.1607687835
1.1542998276
1.1558878427
1.1578103571
1.1614385586
1.1584723189
1.1803845625
1.1600883305
1.1519685841
1.1656712375
1.1480461857
1.1672878031
1.1608575507
1.1576472402
1.1793040656
1.1798723882
1.1577500929
1.1570678376
1.1797148035
1.1513841505
1.1642728887
1.1763190789
1.1564366444
1.1714859752
1.1759601318
1.1768363832
1.1565177491
1.1736312193
1.1793656744
1.1753112809
1.1679040151
1.1489182671
1.1643234995
1.1700956943
1.1768529950
1.1585951846
1.1554595402
1.1743861721
1.1789515038
1.1605879411
1.1722900057
1.1523994513
1.1773332207
1.1754799841
1.1697479056
1.1634862451
1.1771970691
1.1640232192
1.1574583565
1.1648316300
1.1642111701
1.1660549704
1.1600112478
1.1480486032
1.1822790404
1.1598506936
1.1639125067
1.1574199417
1.1817037045
1.1545122346
1.1730468449
1.1635764226
1.1639493204
1.1816887073
1.1769032052
1.1629076184
1.1639455959
1.1512166422
1.1810382032
1.1627589671
1.1700956924
1.1535023534
1.1763202998
1.1506824414
1.1565183179
1.1591743965
1.1531717793
1.1799882335
1.1690641868
1.1500198904
1.1468830516
1.1564034109
1.1649707071
1.1830292486
1.1480445828
1.1667602055
1.1639494790
1.1659093614
1.1663864673
1.1608584473
1.1553943596
1.1577508651
1.1519685683
1.1812994586
1.1835730947
1.1795148294
1.1743890796
1.1459815769
1.1647697450
1.1640266992
1.1594950539
1.1819938330
1.1801652958
1.1656713006
1.1638710243
1.1821163010
1.1683053656
1.1561647318
1.1501875417
1.1533023764
1.1691489630
1.1582233797
1.1610244601
1.1543001961
1.1800854489
1.1552288490
1.1492724290
1.1522729408
1.1780366715
1.1822755260
1.1839115532
1.1786208508
1.1646951739
1.1571397372
1.1512158143
1.1542844399
1.1835795982
1.1839598552
1.1631189266
1.1656508143
1.1633587514
1.1666059181
1.1815582017
1.1674235320
1.1672898341
1.1855300305
1.1847193212
1.1605362458
1.1616499223
1.1825090700
1.1630706832
1.1653632553
1.1683538116
1.1837065037
1.1850826381
1.1844395107
1.1626302842
1.1619709952
1.1672223541
1.1649993936
1.1657193907
1.1834579221
1.1844291386
1.1807492908
1.1822438471
1.1683891505
1.1852019009
1.1858050774
1.1645642821
1.1835728291
1.1825187962
1.1629087614
1.1863007119
1.1600888639
1.1845319533
1.1590791677
1.1597839134
1.1863336866
1.1627597767
1.1855682969
1.1848204929
1.1570682811
1.1840385000
1.1587752520
1.1615656243
1.1834317574
1.1835061983
1.1545403467
1.1487205750
1.1487731213
1.1487622077
1.1487060747
1.1477480836
1.1486304113
1.1455014204
1.1462851541
1.1506059437
1.1498050448
1.1506012938
1.1505954751
1.1479723888
1.1460749654
1.1482534168
1.1438199994
1.1462792763
1.1477427321
1.1455395957
1.1437155919
1.1463530320
1.1498004238
1.1477199498
1.1431309622
1.1448007544
1.1484296324
1.1454354979
1.1445011485
1.1459106577
1.1429659309
1.1463864737
1.1461599784
1.1510913630
1.1464566307
1.1487134837
1.1438164814
1.1434899057
1.1455329316
1.1498154624
1.1475633166
1.1501393170
1.1487785671
1.1522547721
1.1566682066
1.1470504273
1.1449317775
1.1499728867
1.1572378020
1.1484267564
1.1447973055
1.1516825598
1.1440579284
1.1445213700
1.1510878150
1.1500933875
1.1588670743
1.1474609433
1.1538397894
1.1463773000
1.1510263672
1.1486960796
1.1488231214
1.1586845552
1.1584866703
1.1464535370
1.1534013291
1.1526195543
1.1513721612
1.1573284600
1.1522468568
1.1516553910
1.1558242517
1.1553566516
1.1499760072
1.1552301244
1.1436769894
1.1566432619
1.1575612007
1.1567384165
1.1487688784
1.1529147569
1.1588680834
1.1704296855
1.1686715121
1.1488043504
1.1538376571
1.1552951528
1.1586736190
1.1533674071
1.1541778262
1.1513261287
1.1581973988
1.1568337066
1.1696742529
1.1685296204
1.1587405743
1.1538077417
1.1545910890
1.1575591924
1.1605220979
1.1611566203
1.1528760382
1.1641648704
1.1617386815
1.1565919570
1.1524254577
1.1623243458
1.1548924919
1.1540605140
1.1552282634
1.1647515566
1.1567382913
1.1573871989
1.1613506533
1.1624747202
1.1642853896
1.1632819270
1.1553298110
1.1525424691
1.1635766518
1.1554263186
1.1436749153
1.1623065544
1.1552925590
1.1581979844
1.1599240724
1.1587341453
1.1674693456
1.1594256860
1.1693986343
1.1705426280
1.1545235825
1.1686813859
1.1558493350
1.1613382542
1.1673360608
1.1601731318
1.1704392908
1.1695007942
1.1646862033
1.1635383309
1.1525162426
1.1658149277
1.1642921453
1.1625676436
1.1609234897
1.1617424247
1.1580670737
1.1535807532
1.1605242201
1.1554261400
1.1591034694
1.1562600762
1.1636196266
1.1623251611
1.1647521619
1.1511358579
1.1614182025
1.1633453439
1.1548713262
1.1628796920
1.1611595176
1.1619060887
1.1594994373
1.1611299218
1.1540326938
1.1658090247
1.1674781886
1.1596144202
1.1587465815
1.1601732218
1.1559041007
1.1594269527
1.1669409632
1.1683949864
1.1669900690
1.1663040296
1.1600009864
1.1729305249
1.1684243883
1.1581694884
1.1573415463
1.1658721638
1.1610085682
1.1603192366
1.1694118030
1.1678427856
1.1675992529
1.1599107826
1.1735343653
1.1614161088
1.1648401252
1.1721693972
1.1658159047
1.1633497707
1.1673624908
1.1591045565
1.1593598326
1.1711863671
1.1609267500
1.1648162535
1.1535611208
1.1685917487
1.1580533465
1.1712663016
1.1625079773
1.1636214742
1.1669918609
1.1735316143
1.1627660588
1.1658720760
1.1608534799
1.1650954491
1.1655858171
1.1581696758
1.1424736181
1.1603206703
1.1663103354
1.1572239640
1.1587722726
1.1678025005
1.1734886294
1.1668100419
1.1639540030
1.1597056302
1.1684076483
1.1408772478
1.1662064576
1.1558857800
1.1685918453
1.1634549570
1.1702564946
1.1421477375
1.1715174809
1.1669574428
1.1691453004
1.1657881662
1.1623947541
1.1721032666
1.1716928310
1.1728687053
1.1685351217
1.1707678930
1.1609413305
1.1679329603
1.1652605035
1.1712016349
1.1720216193
1.1638770513
1.1723723312
1.1701737609
1.1627676362
1.1424737695
1.1655920310
1.1698069803
1.1409945451
1.1702795410
1.1665953706
1.1411283626
1.1650721943
1.1618105162
1.1691150351
1.1393732483
1.1677248669
1.1421490587
1.1716911086
1.1690092384
1.1714036552
1.1431112682
1.1609415591
1.1691476807
1.1651638106
1.1392595977
1.1702728096
1.1709777147
1.1378734461
1.1717321758
1.1669617600
1.1694911308
1.1707697125
1.1632206424
1.1399235384
1.1602294331
1.1690627551
1.1729078667
1.1723712595
1.1698124150
1.1411810884
1.1716945794
1.1722434489
1.1687321751
1.1664438280
1.1701913011
1.1724385340
1.1417530865
1.1695743250
1.1709217632
1.1418513131
1.1422216710
1.1727172180
1.1679581106
1.1431147708
1.1378724021
1.1458226205
1.1392679109
1.1677335850
1.1735888050
1.1399224991
1.1379801820
1.1739768284
1.1677322994
1.1691306068
1.1384888005
1.1710758672
1.1478529584
1.1397316672
1.1615647925
1.1703439136
1.1412663980
1.1439028054
1.1703516292
1.1735118810
1.1383770909
1.1738690236
1.1687310456
1.1431497225
1.1718804430
1.1730708466
1.1672735407
1.1722430991
1.1722692363
1.1722575928
1.1737749438
1.1422325173
1.1411612826
1.1688869053
1.1418495417
1.1690774027
1.1411830694
1.1729051976
1.1602215463
1.1695728790
1.1729780144
1.1705410484
1.1716920466
1.1733974019
1.1400306042
1.1740335450
1.1368542027
1.1660927485
1.1397316167
1.1379795482
1.1729741149
1.1734290905
1.1739820075
1.1488817517
1.1736702022
1.1447436748
1.1381825270
1.1739742090
1.1412652078
1.1677398176
1.1376940852
1.1386323454
1.1727249508
1.1703497045
1.1500386407
1.1697672032
1.1466220988
1.1735856425
1.1372590394
1.1367637856
1.1727411371
1.1736412101
1.1411622163
1.1656163341
1.1730676910
1.1402001059
1.1422318972
1.1672801674
1.1358708473
1.1722656649
1.1738879582
1.1400196200
1.1705391734
1.1534508618
1.1642172564
1.1741866170
1.1511511145
1.1372581535
1.1729711476
1.1739872138
1.1376931499
1.1739795009
1.1697657169
1.1735190850
1.1361653410
1.1734260115
1.1660941457
1.1372450687
1.1742963126
1.1712541531
1.1379630691
1.1730473182
1.1557126174
1.1742603292
1.1367490112
1.1638611758
1.1742333242
1.1362627858
1.1354380672
1.1522509495
1.1742303147
1.1656167130
1.1371405176
1.1351160650
1.1401990921
1.1578681116
1.1741670027
1.1742581434
1.1392546866
1.1361638981
1.1372441563
1.1358469479
1.1742576505
1.1735156765
1.1378946862
1.1739564530
1.1544548806
1.1712521833
1.1742345714
1.1642133645
1.1357486866
1.1354397131
1.1742517900
1.1388999071
1.1599732280
1.1565961715
1.1743663340
1.1742316828
1.1352728913
1.1741653827
1.1741837875
1.1742863630
1.1624857520
1.1355635483
1.1741262281
1.1621417481
1.1389860386
1.1472639977
1.1404739012
1.1435461798
1.1587022436
1.1354381410
1.1604808745
1.1365511122
1.1512433391
1.1407272529
1.1392545939
1.1572597343
1.1359299334
1.1361227836
1.1739532547
1.1393781591
1.1371882265
1.1453784570
1.1418401256
1.1592597285
1.1492195141
1.1402986811
1.1552745971
1.1357472364
1.1366541362
1.1378937138
1.1743802524
1.1613167108
1.1608299917
1.1741821768
1.1727879440
1.1532720281
1.1742849750
1.1707371817
1.1643620380
1.1747278230
1.1740983465
1.1744574304
1.1678284280
1.1625900988
1.1735314349
1.1742911466
1.1718634191
1.1661379292
1.1745582619
1.1744881634
1.1746984945
1.1693704790
1.1564251080
1.1486845112
1.1422308306
1.1368057281
1.1523511293
1.1578238738
1.1407277475
1.1604789463
1.1404748709
1.1376279935
1.1608895700
1.1450994556
1.1405626923
1.1365497459
1.1501816933
1.1424606358
1.1461579313
1.1380161278
1.1543712332
1.1468762523
1.1418768935
1.1361212454
1.1505136746
1.1559885687
1.1392114297
1.1584411296
1.1597194783
1.1434072227
1.1385801381
1.1481080701
1.1418411892
1.1443026973
1.1371866722
1.1719838366
1.1541740769
1.1617180109
1.1647668176
1.1683150912
1.1712926529
1.1665816414
1.1744872239
1.1746375310
1.1752045463
1.1630248591
1.1744876030
1.1750275411
1.1734588925
1.1747563426
1.1522785809
1.1743788670
1.1735656969
1.1696500896
1.1709279964
1.1629558206
1.1665831920
1.1698908083
1.1724853657
1.1647901363
1.1740964217
1.1744550694
1.1749596295
1.1613169697
1.1746535840
1.1752487619
1.1742121197
1.1751001782
1.1728607078
1.1682686681
1.1500683816
1.1438932367
1.1394889549
1.1376267710
1.1423119847
1.1476074279
1.1570460576
1.1612445745
1.1467264270
1.1608903709
1.1439401999
1.1533562220
1.1583154441
1.1513949576
1.1422310509
1.1483962755
1.1436141576
1.1385784798
1.1402160108
1.1457646764
1.1551795731
1.1601305783
1.1451089215
1.1589317006
1.1434075258
1.1517233514
1.1566140428
1.1494863794
1.1407247995
1.1651337329
1.1702329420
1.1687761720
1.1748278369
1.1634586691
1.1754451205
1.1726509149
1.1549760836
1.1742369361
1.1751026573
1.1756690688
1.1757853415
1.1621049533
1.1532974664
1.1718687251
1.1670552902
1.1741212647
1.1751411577
1.1669897524
1.1687481131
1.1704157556
1.1750776683
1.1617202058
1.1757689294
1.1715342715
1.1735473489
1.1747282077
1.1758801880
1.1754832223
1.1633083839
1.1731094023
1.1652612834
1.1748991528
1.1750277546
1.1781320393
1.1703552006
1.1616275985
1.1761893345
1.1490526735
1.1438927355
1.1779960237
1.1787086874
1.1542787053
1.1697332794
1.1587961371
1.1525045849
1.1760111047
1.1776716996
1.1785706558
1.1411550304
1.1575703847
1.1612473716
1.1483837369
1.1513993065
1.1455645206
1.1667438794
1.1663465521
1.1736870779
1.1441910304
1.1731906281
1.1778689461
1.1456652617
1.1778894858
1.1690188632
1.1605717002
1.1752998690
1.1473071037
1.1423976019
1.1776253623
1.1789839475
1.1528530892
1.1715059981
1.1571948796
1.1507884666
1.1769365605
1.1770994917
1.1781416554
1.1402141786
1.1558709630
1.1593442729
1.1468781860
1.1499052967
1.1451083274
1.1654795668
1.1676077776
1.1725171640
1.1420281401
1.1747096763
1.1784144727
1.1454562705
1.1575745919
1.1764518825
1.1625646093
1.1733009785
1.1633008015
1.1763657719
1.1724496346
1.1757386981
1.1522485402
1.1531082403
1.1550664293
1.1761595784
1.1566156902
1.1607957921
1.1655363705
1.1757735628
1.1638455427
1.1596670016
1.1749277651
1.1627907198
1.1752953474
1.1557091069
1.1747927572
1.1541941076
1.1675054366
1.1707962575
1.1590374573
1.1692383793
1.1581904250
1.1761120443
1.1637357803
1.1721515979
1.1639123481
1.1765765790
1.1737406691
1.1756720392
1.1513873263
1.1522913793
1.1559202475
1.1764821796
1.1567112576
1.1609353015
1.1674082103
1.1754051176
1.1621080106
1.1598501881
1.1742294324
1.1622808912
1.1756159181
1.1755987034
1.1656773318
1.1692387317
1.1589623690
1.1709378744
1.1671978785
1.1794648001
1.1756100896
1.1771083364
1.1685635379
1.1697335963
1.1719453506
1.1747590247
1.1504655313
1.1779267382
1.1775458366
1.1768505423
1.1779236900
1.1681943166
1.1535151932
1.1763283894
1.1684375294
1.1663467930
1.1708253711
1.1639917982
1.1714435111
1.1472530755
1.1776197256
1.1785740216
1.1733819250
1.1793037479
1.1763277486
1.1777251911
1.1769539320
1.1429683210
1.1647842715
1.1778693554
1.1580432637
1.1651108001
1.1660661349
1.1803829819
1.1798710561
1.1708250495
1.1751886615
1.1797753023
1.1760113241
1.1787101937
1.1804154794
1.1456640921
1.1616310309
1.1731907507
1.1740231386
1.1788615681
1.1685339656
1.1800623203
1.1763536482
1.1778349339
1.1771385576
1.1673033599
1.1679752348
1.1705665313
1.1762466187
1.1488727115
1.1780001989
1.1785461706
1.1772355833
1.1694557439
1.1520129314
1.1770608583
1.1702461909
1.1649635193
1.1649633825
1.1731348088
1.1468769851
1.1780283439
1.1787605862
1.1746181460
1.1786590843
1.1767614603
1.1765502321
1.1420261239
1.1665792098
1.1728147778
1.1770679086
1.1564812630
1.1639922441
1.1799862306
1.1795532325
1.1721006519
1.1739455958
1.1794258680
1.1747095108
1.1784152550
1.1807844185
1.1442033502
1.1597411862
1.1715057876
1.1750601949
1.1518345035
1.1758765261
1.1810380306
1.1817029981
1.1764866279
1.1549910896
1.1531626922
1.1739567290
1.1567117189
1.1736312001
1.1719142700
1.1679506957
1.1621442690
1.1822782686
1.1474943124
1.1531079491
1.1489669445
1.1764104009
1.1582469589
1.1544587026
1.1821158745
1.1756332070
1.1550410543
1.1777634504
1.1809958553
1.1575751865
1.1549329321
1.1610752668
1.1610756050
1.1570765481
1.1642606280
1.1713505488
1.1813306226
1.1583933665
1.1619242958
1.1448926933
1.1509856632
1.1643226991
1.1727885951
1.1540765955
1.1558512702
1.1602128784
1.1543596535
1.1782134970
1.1504297134
1.1762483642
1.1816884326
1.1812777083
1.1761148412
1.1531055097
1.1727656162
1.1559205876
1.1722339529
1.1660937347
1.1619246021
1.1819929843
1.1461008057
1.1522908449
1.1486764865
1.1763699116
1.1574578160
1.1531713475
1.1823158778
1.1749145767
1.1540765510
1.1790712383
1.1802684949
1.1574898572
1.1550667482
1.1609357106
1.1567309686
1.1557394515
1.1625673754
1.1697300189
1.1814411656
1.1590380244
1.1439652130
1.1513865179
1.1541344868
1.1621345211
1.1745860612
1.1520226217
1.1550409030
1.1585439122
1.1770417866
1.1634338552
1.1474929016
1.1544587801
1.1681943560
1.1448907114
1.1775458295
1.1670611333
1.1621365193
1.1629004536
1.1688698384
1.1606088813
1.1481575126
1.1620530888
1.1796276075
1.1560882080
1.1722903548
1.1553338609
1.1585452658
1.1613066387
1.1722905082
1.1725170021
1.1714435828
1.1585070731
1.1776186004
1.1776309535
1.1679002699
1.1654802909
1.1796290800
1.1598602047
1.1539377295
1.1794649288
1.1771010741
1.1665373276
1.1565500765
1.1671972741
1.1493488539
1.1747591008
1.1743990411
1.1659661717
1.1659389910
1.1788561033
1.1628400981
1.1588724303
1.1777357690
1.1805914141
1.1676077308
1.1778346839
1.1807289692
1.1600825150
1.1570512495
1.1778345603
1.1792319852
1.1518347905
1.1639799513
1.1754541903
1.1516784391
1.1489663145
1.1784748697
1.1633731902
1.1460989296
1.1531715341
1.1668063412
1.1439631139
1.1762466193
1.1659662510
1.1744919647
1.1602145822
1.1626814292
1.1702250478
1.1605025554
1.1471893541
1.1616494647
1.1550071610
1.1570072349
1.1570772945
1.1621367001
1.1693222329
1.1736276059
1.1697676375
1.1597833257
1.1784982128
1.1794686006
1.1797771471
1.1611264575
1.1528350831
1.1786240499
1.1654236887
1.1585009680
1.1492805783
1.1731348761
1.1807276667
1.1668062877
1.1668054387
1.1618915356
1.1590785535
1.1800626908
1.1805242555
1.1585511791
1.1585197523
1.1786401709
1.1804161884
1.1504297544
1.1642772327
1.1765676783
1.1504784133
1.1486752211
1.1763564174
1.1557397052