<VTKFile type="UnstructuredGrid" version="0.1">
	<UnstructuredGrid>
		<Piece NumberOfPoints="1862" NumberOfCells="3498">
			<CellData>
				<DataArray type="Int32" Name="type" NumberOfComponents="1" Format="ascii">
0
0
0
0
0
0
0
0
0
0
0
0
0
0
0
0
1
0
0
1
0
0
0
0
0
0
0
0
0
0
0
0
0
1
0
0
0
0
0
0
0
0
0
0
0
0
0
0
0
0
1
0
0
0
0
0
0
0
0
0
0
1
0
0
0
0
0
0
0
0
0
0
0
0
0
0
0
0
0
0
0
0
0
0
0
0
0
0
0
0
0
0
0
0
0
0
0
0
0
0
0
0
0
0
0
0
0
0
0
0
0
0
0
0
0
0
0
0
0
0
0
0
0
1
0
0
0
0
0
0
0
0
0
0
0
0
0
0
0
0
0
0
0
0
0
0
0
0
0
0
0
1
0
1
1
0
0
0
0
0
0
0
0
0
0
0
0
0
1
0
1
0
0
0
0
1
0
0
0
0
0
0
0
0
1
1
0
0
0
0
0
1
0
0
0
0
0
0
0
0
1
0
0
0
0
0
0
0
0
0
0
0
0
0
0
0
0
0
0
0
0
0
0
0
0
0
0
0
0
0
0
0
0
1
0
0
0
0
0
0
0
0
0
0
0
0
0
0
0
0
0
0
0
0
0
0
0
0
0
0
0
0
0
0
0
0
0
0
0
0
0
0
0
0
0
0
0
0
0
0
0
1
0
0
0
0
0
0
0
0
0
0
0
0
0
0
0
0
0
0
0
0
0
0
0
0
0
0
0
0
0
0
0
0
0
0
0
0
0
0
0
0
0
0
0
0
0
0
0
0
0
0
1
0
0
0
0
0
0
0
0
0
0
0
0
0
0
0
0
0
0
0
0
0
0
0
0
0
0
0
0
0
0
0
0
0
0
0
0
0
0
0
0
0
0
0
0
0
0
0
0
0
0
0
0
0
0
0
0
0
1
0
0
0
0
0
0
0
0
0
0
0
0
0
0
0
0
0
0
0
0
0
0
0
0
0
0
0
0
0
0
0
0
0
0
0
0
0
0
0
0
0
0
0
0
0
0
0
0
0
0
0
0
0
0
0
0
0
0
0
0
0
0
0
0
0
0
0
0
0
0
0
0
0
0
0
0
0
0
0
0
0
0
0
0
0
0
0
0
0
0
0
0
0
0
0
0
0
0
0
0
0
0
0
0
0
0
0
0
0
0
0
0
0
0
0
0
0
0
0
0
0
0
0
0
0
0
0
0
0
0
0
0
1
0
0
0
0
0
0
0
0
0
0
0
0
0
0
0
0
0
0
0
1
0
0
0
0
0
0
0
0
0
0
0
0
0
0
0
0
0
0
0
0
0
0
0
0
0
0
0
0
0
0
0
0
0
0
0
0
0
0
0
0
0
0
0
0
0
0
0
0
0
0
0
0
0
1
0
0
0
0
0
0
0
0
0
0
0
0
0
0
0
0
0
0
0
0
0
0
0
1
0
0
0
0
0
0
0
0
0
0
0
0
0
0
0
0
0
0
0
1
0
0
0
1
0
0
0
0
0
0
0
0
0
0
0
0
0
0
0
0
0
0
0
0
0
0
0
0
0
1
0
0
0
0
0
0
0
1
0
0
0
0
0
0
0
0
0
0
0
0
0
0
0
0
0
0
0
0
0
0
0
0
0
0
1
0
0
0
0
0
0
0
1
0
0
0
0
0
0
1
0
0
0
0
0
0
0
0
0
0
0
0
0
0
0
0
0
0
0
0
0
0
0
0
0
0
0
0
0
0
0
0
0
0
0
0
0
0
1
0
0
0
0
0
1
0
0
0
0
0
0
0
1
0
0
0
0
0
0
0
0
0
0
0
0
0
1
0
0
0
0
0
0
0
0
0
0
0
0
0
0
0
0
0
0
0
0
0
0
0
0
0
0
0
0
0
0
0
0
0
0
0
0
0
0
0
0
0
0
0
0
0
0
0
0
0
0
0
0
0
1
0
0
0
0
0
0
0
0
0
0
0
0
0
0
0
0
0
0
0
1
0
0
0
0
0
0
0
0
0
1
0
0
0
0
0
0
0
0
0
0
0
0
0
0
0
0
0
0
0
0
0
0
0
0
0
0
0
0
0
1
0
1
0
0
0
0
0
0
0
0
0
0
0
0
0
0
0
0
0
0
0
0
0
0
0
0
0
0
0
1
0
0
0
1
0
0
0
0
0
0
0
0
0
0
0
0
0
0
0
0
0
0
0
0
0
0
0
0
0
0
0
0
1
0
0
0
0
0
0
0
0
0
0
0
0
0
0
0
0
0
0
0
0
0
0
0
0
0
1
0
0
0
0
0
0
0
0
0
0
0
0
0
0
0
0
0
0
0
0
0
0
0
1
0
0
0
0
0
0
1
0
0
0
0
0
0
0
0
0
0
0
1
0
0
0
0
0
0
0
0
0
0
0
0
0
0
0
0
0
0
0
0
1
0
0
0
0
0
0
0
0
0
0
0
1
0
0
0
0
0
0
0
0
0
0
0
0
0
0
0
0
0
0
0
0
0
1
0
0
0
0
0
0
0
0
0
1
1
0
1
0
1
0
0
0
0
0
0
0
0
0
0
0
1
0
0
0
0
0
1
1
0
0
0
0
0
0
1
0
0
0
0
0
1
1
1
0
0
0
0
0
0
0
0
0
0
0
0
1
1
0
0
1
0
0
0
0
0
1
0
0
0
1
0
1
0
0
0
0
0
0
0
1
0
0
0
0
0
0
0
1
0
0
1
0
0
0
0
0
0
0
0
0
0
0
0
0
0
0
1
0
0
0
0
0
0
0
0
0
0
0
0
0
0
0
0
0
0
0
0
0
0
0
0
0
0
0
0
0
0
0
0
0
0
0
0
1
0
0
0
0
0
0
1
0
0
0
1
0
0
0
0
0
0
0
0
0
0
0
1
0
0
0
0
0
0
0
0
0
0
0
0
0
0
0
0
0
0
0
0
0
0
0
0
0
0
0
0
0
0
0
0
0
0
0
0
0
0
0
0
1
1
0
0
0
0
0
0
0
0
0
0
0
0
0
1
0
0
0
0
0
0
0
0
0
0
0
0
0
0
0
0
0
0
0
0
0
0
0
0
0
0
0
0
0
0
0
0
0
0
0
0
0
0
0
0
0
0
0
0
0
0
0
0
0
0
0
0
0
0
0
0
0
0
0
0
0
0
0
0
0
0
0
0
0
0
0
0
1
1
0
0
0
0
0
0
0
0
1
0
0
0
0
0
0
0
0
0
0
0
0
0
0
0
0
0
0
0
0
0
0
0
1
0
0
0
0
0
0
0
0
0
0
0
0
0
0
0
0
1
0
0
0
0
0
0
0
0
0
0
0
0
0
0
0
0
0
0
0
0
0
0
0
0
0
0
0
0
0
0
0
0
0
0
0
0
0
0
0
0
0
0
0
0
0
0
0
0
0
0
0
0
0
0
0
0
0
0
0
0
0
0
0
0
0
0
0
0
0
0
0
0
0
0
0
0
0
0
0
0
0
0
0
0
0
0
0
0
0
0
1
1
0
0
0
0
0
1
0
0
0
0
0
0
0
0
0
0
0
0
1
0
0
0
0
0
0
0
0
0
0
0
0
0
0
0
0
0
0
0
0
0
0
0
0
0
0
0
0
0
0
0
0
0
0
0
0
0
0
0
0
0
0
0
0
0
0
0
0
0
0
0
0
0
1
0
1
0
0
0
0
0
0
0
0
0
0
0
0
0
0
0
0
0
0
1
0
0
0
0
0
0
0
0
0
0
0
0
0
0
0
0
0
0
0
0
0
0
0
0
0
0
0
0
0
0
0
0
0
0
0
0
0
0
0
0
0
0
0
0
0
0
0
0
0
0
0
0
0
0
0
0
0
0
0
0
0
0
0
0
0
0
0
0
0
0
1
0
0
0
0
0
0
0
0
0
0
1
0
0
0
0
0
0
0
0
0
0
0
0
0
0
0
0
0
0
0
0
0
0
0
0
0
0
0
0
0
0
0
0
0
0
0
0
0
1
0
0
0
0
0
0
0
0
0
0
0
0
0
0
0
0
0
0
0
0
0
0
0
0
0
0
0
0
0
0
0
0
0
0
0
0
0
0
0
0
0
0
0
0
0
0
0
0
0
0
0
0
0
0
0
0
0
0
0
0
0
0
0
0
0
0
0
0
0
0
0
0
0
0
0
0
0
0
0
0
0
1
0
0
0
0
0
0
0
0
0
0
0
0
0
0
0
0
0
0
0
0
0
0
0
0
0
0
0
0
0
0
0
0
0
0
0
0
0
0
0
0
0
0
0
0
0
0
0
0
0
0
0
0
0
0
0
0
0
0
0
0
0
0
0
0
0
0
0
0
0
0
0
0
0
0
0
0
0
0
0
0
0
0
0
0
0
0
0
0
0
0
0
0
0
0
0
0
0
0
0
0
0
0
0
0
0
0
0
0
0
0
0
0
0
0
0
0
0
0
0
0
0
0
0
1
0
0
0
0
0
0
0
0
0
0
0
0
0
0
0
0
0
0
0
0
0
0
0
0
0
0
0
0
0
0
0
0
0
0
0
0
0
0
0
0
0
0
0
0
0
0
0
0
0
0
0
0
0
0
0
0
0
0
0
0
0
0
0
0
0
0
0
0
0
0
0
0
0
0
0
0
0
0
0
0
0
1
0
0
0
0
0
0
0
1
0
0
0
0
0
0
0
0
0
0
0
0
0
0
0
0
0
0
0
0
0
0
0
0
0
0
0
0
0
0
0
0
0
0
0
0
0
1
0
0
0
0
0
0
0
0
0
0
0
0
0
0
0
0
0
0
0
0
0
1
0
0
0
0
0
0
0
0
0
0
0
0
1
1
0
0
0
0
0
0
0
0
0
0
0
0
0
0
0
1
1
0
1
0
0
0
0
0
0
0
0
0
1
0
0
0
0
0
0
1
0
0
0
0
0
0
0
0
0
0
1
0
0
0
0
1
0
1
0
0
0
0
0
0
0
1
0
0
0
1
0
0
0
1
0
1
1
0
0
1
1
0
0
0
1
0
0
0
1
0
0
0
0
0
0
0
0
0
1
0
0
0
0
0
0
1
0
0
0
0
0
0
0
0
0
0
0
0
0
0
0
0
0
0
0
0
0
0
0
0
0
0
0
1
0
0
1
0
0
0
0
0
0
0
0
0
0
0
0
0
0
0
0
0
0
1
0
0
1
0
0
0
0
0
0
0
0
0
0
0
1
0
0
1
0
0
0
0
0
0
0
0
0
0
0
1
1
0
0
0
0
0
0
0
0
0
0
0
0
1
0
0
0
0
0
0
0
0
0
0
0
0
0
0
0
0
0
1
0
0
0
0
0
0
0
0
0
0
0
0
0
0
0
0
0
1
0
0
0
0
0
0
0
0
0
0
0
0
0
0
0
0
0
0
0
0
0
0
0
0
0
0
0
0
0
0
0
0
0
0
0
0
0
0
0
0
1
0
0
0
0
0
0
0
0
0
0
0
0
0
0
0
0
0
0
0
0
0
0
0
0
0
0
0
0
0
0
0
0
0
0
0
0
0
0
0
0
0
0
0
0
0
1
0
0
0
0
0
0
0
0
0
0
0
0
0
0
0
0
0
0
0
0
0
0
0
0
0
0
0
0
0
0
0
0
0
0
0
0
0
0
0
0
0
0
0
0
0
0
0
1
0
0
0
0
0
0
0
0
0
0
1
0
0
0
0
0
0
0
0
0
0
0
0
0
0
0
1
0
0
1
0
0
0
0
0
0
0
0
0
0
0
0
0
0
0
0
0
0
0
0
0
0
0
1
0
0
0
0
0
0
0
0
0
0
0
0
0
0
0
0
0
0
0
0
0
0
0
0
0
0
0
0
0
0
0
0
0
0
0
1
0
0
0
0
0
0
0
0
0
0
0
0
0
0
0
0
0
0
0
0
0
0
0
0
0
0
0
0
0
0
0
0
0
0
0
0
0
0
0
0
0
0
0
0
0
0
0
0
0
0
0
0
0
0
0
0
0
0
0
0
0
0
0
0
0
0
0
0
0
0
0
0
0
0
0
0
1
0
0
0
0
0
0
0
0
0
0
0
0
0
0
0
0
0
0
0
0
0
0
0
0
0
0
0
0
0
0
0
0
0
0
0
0
0
0
0
1
0
0
0
0
0
0
0
0
0
0
0
0
1
1
0
0
0
0
0
0
0
0
0
0
0
0
0
0
0
0
0
0
0
0
0
0
0
0
0
0
0
0
0
0
0
0
0
0
0
0
0
0
0
0
0
0
0
0
0
0
0
0
0
0
0
0
0
0
0
0
0
0
0
0
0
0
0
0
0
0
0
0
0
0
0
0
0
0
0
0
0
0
0
0
0
0
0
0
0
0
0
0
0
0
0
0
0
0
0
0
0
0
0
0
0
1
0
1
0
0
0
0
0
0
0
1
1
1
1
0
0
0
0
0
0
0
0
0
0
0
0
0
0
0
0
0
0
0
0
0
0
0
0
0
0
0
0
1
1
0
0
0
0
0
0
0
0
0
0
0
0
0
0
0
0
0
0
1
0
0
0
0
0
0
0
1
1
0
1
1
0
0
1
0
0
0
0
0
0
0
1
0
1
0
0
0
0
0
0
0
0
0
0
0
0
0
0
0
0
0
0
0
0
0
0
0
0
0
0
0
1
1
0
0
0
1
1
0
0
0
0
1
0
0
1
0
1
0
0
0
0
0
1
0
0
0
1
0
0
0
0
0
0
0
0
0
0
0
0
0
0
0
0
0
0
0
0
0
0
0
0
0
0
0
1
0
0
0
0
0
0
1
0
0
0
0
0
0
0
0
0
0
0
0
0
0
0
0
0
0
0
0
0
0
0
0
0
0
0
0
0
1
0
1
0
0
0
0
0
0
0
1
0
0
0
0
0
0
0
0
0
0
0
1
0
0
0
0
0
0
0
0
0
1
0
0
0
0
0
0
0
1
0
0
0
0
0
0
0
1
0
0
0
0
0
0
0
0
0
0
0
0
0
0
0
0
0
0
0
1
0
1
0
0
0
0
0
1
0
0
0
0
0
0
0
0
0
0
0
0
0
0
0
0
0
0
0
0
0
0
0
0
0
1
0
1
0
0
0
0
0
0
0
0
0
1
0
0
0
0
0
1
0
0
0
0
0
0
0
0
0
0
0
0
0
0
0
1
0
0
0
0
0
0
0
0
1
0
0
0
0
0
0
0
0
0
0
0
0
0
0
0
0
0
0
0
0
0
0
0
0
0
0
0
0
0
0
1
0
0
0
0
0
0
0
0
0
0
0
0
0
0
0
0
1
0
0
0
0
0
0
0
0
1
0
0
0
0
0
0
0
0
0
1
0
0
0
0
0
1
0
0
0
0
0
0
0
0
0
0
0
0
0
0
0
0
0
0
0
1
0
0
0
0
0
0
1
0
0
0
0
0
0
0
0
1
0
0
0
0
0
0
0
0
0
0
0
0
0
0
1
0
0
1
0
0
0
1
0
0
0
0
0
0
0
0
0
0
0
0
0
0
0
0
1
0
0
0
0
0
0
0
0
0
0
1
0
1
0
0
0
0
0
0
1
0
0
0
0
0
0
0
0
0
0
0
0
0
0
0
0
0
0
0
0
0
0
0
0
0
0
0
1
1
0
0
0
0
0
0
1
0
0
0
0
0
0
0
0
0
0
0
0
0
1
0
0
0
0
0
0
0
1
0
0
0
0
0
0
0
0
0
0
0
0
0
0
0
0
0
0
0
0
0
0
0
0
0
0
0
1
0
0
0
0
0
0
0
0
0
0
1
0
0
1
0
0
0
0
0
0
0
0
0
0
0
0
0
0
0
0
0
0
0
0
0
0
0
0
0
0
0
0
0
1
0
0
0
0
0
0
0
1
0
0
0
0
0
0
0
1
0
0
0
0
1
0
0
0
0
0
0
0
0
0
0
0
1
0
1
0
0
0
1
0
				</DataArray>
				<DataArray type="Float64" Name="h" NumberOfComponents="1" Format="ascii">
1.0578761945
1.0579014045
1.0354194090
1.0422437132
1.0395933687
1.0388319888
1.0422572408
1.0532848704
1.0461199986
1.0585761093
1.0458631259
1.0368597772
1.0656849782
1.0477029724
1.0575268428
1.0743199422
1.0377399614
1.0626833768
1.0636106370
1.0435566886
1.0291371351
1.0722099631
1.0634507449
1.0348666172
1.0408782376
1.0749757800
1.0773948479
1.0647480911
1.0536159410
1.0512870314
1.0463289327
1.0575749093
1.0757845394
1.0314915309
1.0199736606
1.0421698409
1.0232264086
1.0717832526
1.0709714811
1.0305520358
1.0471254096
1.0495731524
1.0735549772
1.0633489220
1.0357923199
1.0625367047
1.0665757628
1.0182815838
1.0106166672
1.0188916555
1.0253845505
1.0520570489
1.0567112737
1.0343389104
1.0392566904
1.0799404658
1.0549347490
1.0126414649
1.0168226672
1.0265950642
1.0064064191
1.0066288629
1.0104822756
1.0445321090
1.0668797319
1.0611214893
1.0301839058
1.0187221273
1.0086149069
1.0084656764
1.0137977819
1.0312304671
1.0789908477
1.0284776418
1.0216418354
1.0822821359
1.0148556263
1.0098499030
1.0141652972
1.0762350548
1.0040399605
1.0555694942
1.0025241797
1.0301964344
1.0816039848
1.0752492634
1.0034847601
1.0444835175
1.0128622730
1.0054616825
1.0052831990
1.0782706868
1.0071258562
1.0107523376
1.0645682047
1.0696034791
1.0597804562
1.0785088627
1.0716675165
1.0043682866
1.0037552992
1.0033961173
1.0507144020
1.0125218604
1.0650071076
1.0434245362
1.0732268094
1.0076677787
1.0127362294
1.0573483205
1.0145154250
1.0077636742
1.0072715258
1.0073702611
1.0362900806
1.0013002559
1.0430338570
1.0584612625
1.0034535474
1.0235734443
1.0614197152
1.0519336170
1.0820463013
1.0556183922
1.0101788263
1.0053458159
1.0293702517
1.0585050504
1.0011642889
1.0015841117
1.0024616029
1.0665035357
1.0181188924
1.0005826718
1.0554643590
1.0034844020
1.0761206133
1.0006143391
1.0019812485
1.0794235362
1.0621583365
1.0546272292
1.0015966813
1.0810373733
1.0772079016
1.0027412953
1.0781177397
1.0003916038
1.0582906112
1.0001471167
1.0760975477
1.0003841631
1.0003917586
1.0000702672
1.0024857298
1.0006993204
1.0001423773
1.0656644705
1.0001368860
1.0612324502
1.0814351721
1.0003436961
1.0783976983
1.0636218396
1.0628653742
1.0010054681
1.0827701586
1.0796842059
1.0575229417
1.0004720338
1.0001845196
1.0577198059
1.0000889161
1.0677443807
1.0849460033
1.0000166897
1.0831998350
1.0004231699
1.0000311260
1.0655675060
1.0010054634
1.0865373751
1.0632992825
1.0838406319
1.0586750317
1.0571363654
1.0844198481
1.0000516113
1.0577865632
1.0543877774
1.0878745469
1.0000373000
1.0603795209
1.0858037511
1.0000208168
1.0006738347
1.0709831354
1.0888335057
1.0868746507
1.0000683857
1.0543788561
1.0808312782
1.0560330873
1.0000551108
1.0893248412
1.0705777325
1.0815165859
1.0778500279
1.0875659858
1.0851441968
1.0900290683
1.0583270273
1.0707240341
1.0695228038
1.0797072319
1.0911609330
1.0833147089
1.0732598695
1.0886106809
1.0653929399
1.0876499632
1.0108360720
1.0869541801
1.0309843624
1.0824964880
1.0001739313
1.0025506787
1.0588441573
1.0892172463
1.0055026479
1.0000997077
1.0193194772
1.0721992589
1.0000835911
1.0004375358
1.0447164455
1.0918871485
1.0845749409
1.0640004492
1.0885147986
1.0936646254
1.0809929003
1.0752115688
1.0871095464
1.0797030450
1.0832846224
1.0727383757
1.0905473964
1.0827133590
1.0773592219
1.0865282468
1.0921824994
1.0753577085
1.0928695086
1.0948073076
1.0744868422
1.0852010387
1.0814695589
1.0695215958
1.0247644348
1.0904358684
1.0883370203
1.0683707545
1.0387227073
1.0786666028
1.0006987534
1.0002905977
1.0921624317
1.0001209732
1.0147017393
1.0037709961
1.0889250683
1.0077945956
1.0521625829
1.0377843555
1.0934549877
1.0802190669
1.0538357415
1.0251328607
1.0869901938
1.0037875787
1.0001443918
1.0002780836
1.0007034233
1.0077913177
1.0146074243
1.0665666992
1.0871264868
1.0768898783
1.0788264792
1.0862691315
1.0954572911
1.0833462953
1.0824563566
1.0915398956
1.0970874001
1.0904606805
1.0851327919
1.0803673301
1.0744865062
1.0783772887
1.0842797151
1.0941164629
1.0981660031
1.0963845470
1.0893102884
1.0955712087
1.0883709871
1.0789089384
1.0928454382
1.0617274727
1.0765827692
1.0002052209
1.0957876536
1.0053857143
1.0315300034
1.0936778231
1.0107632195
1.0004660600
1.0924170958
1.0471674957
1.0853565308
1.0194385890
1.0010953250
1.0864900302
1.0753351843
1.0629265189
1.0004541657
1.0463062038
1.0193665527
1.0054513757
1.0010845794
1.0002400204
1.0968753503
1.0319171561
1.0917742737
1.0107106724
1.0888573617
1.0015450103
1.0945826376
1.1004866046
1.0936686474
1.0799088876
1.0988840760
1.0850910066
1.0893763141
1.0845914253
1.0812837645
1.0093633553
1.1000751113
1.1014089449
1.0630381371
1.0865957807
1.0812429952
1.0043819456
1.0919381654
1.0984100804
1.0990795608
1.0912750416
1.0446974791
1.0299207839
1.0016200533
1.0783784689
1.0976015537
1.0996487610
1.0869722006
1.1062992453
1.1032019841
1.0890270772
1.0810238664
1.0834493079
1.0218039348
1.0824853898
1.0007196531
1.0392065760
1.0557741964
1.0016487504
1.0796824151
1.0074681739
1.0963451971
1.0988672855
1.0144799689
1.0003345233
1.0970349107
1.0250231197
1.0958332701
1.0905720275
1.0704839644
1.0833394417
1.1117014514
1.0003841652
1.0997221790
1.0552482214
1.1133937326
1.0016131357
1.0394160184
1.0744068771
1.0894830119
1.0979674894
1.1163317068
1.0913716373
1.0076105922
1.1163993112
1.0250715233
1.1152098004
1.0007114848
1.0143277637
1.0954945449
1.0824996833
1.1150177487
1.0712317113
1.1031688846
1.0387203764
1.1019633191
1.0913288599
1.0046274265
1.0136789439
1.0970734044
1.0458636927
1.0976351057
1.1081971013
1.1098160075
1.0861592185
1.0175384299
1.0030107750
1.0715763853
1.0015627043
1.0818278811
1.0358022869
1.1023327328
1.0958746538
1.0028968687
1.0696835777
1.0120291682
1.0928040040
1.0781234621
1.0306859840
1.0242211908
1.0033792123
1.1097640146
1.1034875197
1.0908942920
1.0885768617
1.0568899834
1.1059674816
1.0942580337
1.0925208752
1.1017246658
1.0555162150
1.0415969651
1.0753085098
1.0007917347
1.0810262707
1.1010320275
1.1012509501
1.1098153452
1.0028840241
1.0149770446
1.0956358272
1.0072600008
1.0826896071
1.1027748979
1.0940127412
1.0005245091
1.0994628007
1.0473749238
1.0841938953
1.0945338838
1.1180630465
1.0872971353
1.0023982057
1.1009102361
1.0189821856
1.1050677320
1.1015959558
1.0780177424
1.0062733381
1.1175608665
1.0826746743
1.0777148251
1.0782397971
1.1058028277
1.0904159136
1.0010734346
1.0385523589
1.0211482493
1.0103406786
1.0824445199
1.0638383950
1.0914834519
1.1053974229
1.0985232692
1.0044899358
1.0832360530
1.0744077991
1.1060637536
1.0976082578
1.0137294035
1.0316071917
1.0734408271
1.0857786521
1.0517436832
1.1132341386
1.0979677813
1.1163313708
1.1034642013
1.0881714328
1.0824641781
1.1052604223
1.1032613438
1.0824438910
1.1057992030
1.0932290353
1.1009098566
1.1107494017
1.0826774745
1.0797939534
1.1064090867
1.0829091119
1.1018437167
1.1058002231
1.1003217368
1.1046269993
1.0012605344
1.0934871604
1.0469837342
1.0547815867
1.0977020485
1.1134645439
1.1079089487
1.0590349960
1.0940124681
1.0876603222
1.0868868116
1.0872988702
1.1216436440
1.0832389677
1.0976076307
1.0824669504
1.1134640900
1.1058037330
1.1235431070
1.1091114602
1.0827892263
1.1224516136
1.0978915296
1.0653725177
1.1050685980
1.1240035821
1.0961493219
1.0037720578
1.1178247052
1.0898342022
1.1162124525
1.0836704290
1.1130707465
1.1079758002
1.0807688768
1.0262554260
1.0078634711
1.1069236938
1.0677853215
1.0149748228
1.0904165388
1.1190015544
1.0241901441
1.1034644450
1.0841883774
1.1000655464
1.0007919829
1.1048552520
1.1026910788
1.0689632260
1.0991488866
1.0976360513
1.0820396540
1.1040742748
1.1081705266
1.0932278082
1.1112211453
1.1018582017
1.0554742935
1.0857776787
1.0370145123
1.1057857068
1.0868665323
1.0033816849
1.0386746846
1.0925222916
1.0991891114
1.0015645165
1.1259116289
1.1058673369
1.1200235676
1.1178034387
1.1010331531
1.1116213888
1.0824476721
1.0057982492
1.1193439560
1.1159913093
1.1095505431
1.0117593959
1.0959097931
1.0715537595
1.1236669668
1.1289172443
1.0320473997
1.0136666376
1.0305468275
1.1304647591
1.0841394188
1.0484930401
1.0734889460
1.1081701999
1.0909128415
1.1005107343
1.0868882371
1.1048557938
1.1079092454
1.0934870393
1.0023289890
1.1099943171
1.0827413770
1.0829114587
1.1064025793
1.0886527512
1.0376325650
1.0836728371
1.1291868508
1.1289171571
1.1064532422
1.1332217561
1.1079757494
1.1018438909
1.1069242886
1.0898347120
1.0709584935
1.0235861957
1.0874183431
1.1034495104
1.0827913963
1.1312132101
1.1266905819
1.1127980928
1.0037571310
1.0659010197
1.1162122330
1.1291618393
1.0191473690
1.1290244292
1.1063716309
1.0809706750
1.0887105796
1.1475964519
1.1121158559
1.1124018550
1.0978913928
1.0845527117
1.1009225790
1.0818597820
1.0840424863
1.0956975950
1.0543777160
1.0136804851
1.0937708435
1.0709344444
1.1100656990
1.0812904516
1.0946664515
1.0087194580
1.0053154849
1.1216433680
1.1334353460
1.1257529224
1.1203657651
1.0719635562
1.1288348056
1.1357834528
1.0066170972
1.0183361149
1.1230505743
1.1259715236
1.0618033226
1.1283489222
1.1301227235
1.1304077032
1.0402215805
1.0107206726
1.0261113134
1.1200056780
1.1051923902
1.1156110727
1.0976063915
1.1164306749
1.0452681334
1.0308111924
1.0748631459
1.0607737799
1.1336171557
1.0193548875
1.0099725223
1.0742734362
1.0235865037
1.0416029244
1.0305475198
1.0072650824
1.1178247311
1.0148813591
1.0724327556
1.0940057450
1.0077452516
1.0734891609
1.0113672928
1.0060253589
1.0677858206
1.0078496980
1.0516492740
1.0268000614
1.0155585831
1.0053346407
1.0701707693
1.0546078201
1.0490348943
1.0490642849
1.0546491082
1.0402873167
1.0368543299
1.0458547433
1.0485426699
1.0447548018
1.0388143871
1.0396153772
1.0447890188
1.0461403898
1.0575119651
1.0422428905
1.0542754039
1.0485539940
1.0402966067
1.0617818691
1.0626808358
1.0422475755
1.0354293300
1.0635777548
1.0512843457
1.0707356360
1.0350525869
1.0532964200
1.0749763440
1.0408769389
1.0585766002
1.0690657073
1.0656985951
1.0314257454
1.0767359055
1.0660193958
1.0542793419
1.0463276930
1.0617906161
1.0314924093
1.0757796601
1.0575197018
1.0783084040
1.0305419032
1.0746759857
1.0377378351
1.0743208107
1.0735289462
1.0709259090
1.0350551456
1.0707367460
1.0470810366
1.0477061342
1.0435533067
1.0314322784
1.0635075277
1.0213212232
1.0722244453
1.0258448416
1.0690779626
1.0291392171
1.0660550665
1.0706546739
1.0592863460
1.0182772675
1.0767372290
1.0357671677
1.0253853133
1.0665159349
1.0648223461
1.0348852020
1.0536767576
1.0548634581
1.0758690599
1.0774019750
1.0249037650
1.0665531861
1.0747081618
1.0416689948
1.0175685634
1.0783116938
1.0566420083
1.0213312111
1.0143782669
1.0141513368
1.0706837963
1.0258504555
1.0298963358
1.0593500999
1.0422090841
1.0668093716
1.0718246094
1.0267946077
1.0199775116
1.0104801899
1.0187199124
1.0518925403
1.0232270735
1.0444838386
1.0417126902
1.0186735915
1.0206410556
1.0634236434
1.0284563579
1.0328320771
1.0312060545
1.0789841649
1.0096808018
1.0805379049
1.0728105235
1.0249123199
1.0054933881
1.0175678862
1.0496269463
1.0148512104
1.0137933147
1.0224067659
1.0216263330
1.0758996177
1.0747979451
1.0086146669
1.0196428485
1.0665527454
1.0084670934
1.0299148459
1.0268127442
1.0677620680
1.0519552097
1.0240147419
1.0295237756
1.0241866582
1.0106193067
1.0521187728
1.0141515588
1.0626092321
1.0555126311
1.0301948886
1.0460330113
1.0143769859
1.0188870265
1.0064063366
1.0066277224
1.0748317009
1.0056484017
1.0224210243
1.0168318014
1.0249842561
1.0328645534
1.0839891018
1.0815000948
1.0186821454
1.0196417122
1.0363342424
1.0392949572
1.0105722779
1.0096808642
1.0054923699
1.0799449826
1.0479497333
1.0170801052
1.0805384475
1.0343766645
1.0206534857
1.0266179317
1.0782687809
1.0126424368
1.0728546468
1.0071240611
1.0240273808
1.0125232932
1.0716305016
1.0460830254
1.0829580711
1.0295490759
1.0033967425
1.0362977998
1.0062149333
1.0368345740
1.0611814290
1.0037478346
1.0301713772
1.0144815437
1.0784967824
1.0041675746
1.0695748947
1.0385487301
1.0241670695
1.0043673546
1.0434498837
1.0677995274
1.0016503007
1.0480059204
1.0127299624
1.0077567628
1.0056483682
1.0170892756
1.0072693236
1.0363687527
1.0822645437
1.0191028776
1.0250038467
1.0098524847
1.0815023382
1.0039719340
1.0839771709
1.0145226586
1.0572954286
1.0105751611
1.0062160366
1.0016552480
1.0416329808
1.0041668154
1.0752473489
1.0519151692
1.0175918251
1.0144801364
1.0672053406
1.0385895636
1.0368554638
1.0815949893
1.0762435212
1.0034847552
1.0025325765
1.0040398675
1.0429826796
1.0141662428
1.0362595737
1.0614245353
1.0444745336
1.0829527937
1.0039731308
1.0664938547
1.0243926216
1.0713522970
1.0053403096
1.0096789371
1.0052975815
1.0128679292
1.0645911459
1.0107526191
1.0023271506
1.0054725759
1.0052856829
1.0052584567
1.0100572629
1.0101774973
1.0293466434
1.0190712696
1.0015818810
1.0507520933
1.0024415000
1.0304277306
1.0416834210
1.0672030457
1.0176010484
1.0075083806
1.0554654733
1.0034815300
1.0181111297
1.0650039152
1.0597647666
1.0772176542
1.0364393072
1.0546274603
1.0138261562
1.0713478942
1.0023307845
1.0073729294
1.0076754216
1.0743669209
1.0100558502
1.0052997411
1.0363227023
1.0582930771
1.0243576263
1.0015953432
1.0569242936
1.0013016844
1.0096826710
1.0027399916
1.0052632879
1.0732083366
1.0560378355
1.0843019481
1.0430976364
1.0002933074
1.0024457898
1.0075101576
1.0736021466
1.0007468197
1.0036783121
1.0024053479
1.0235883770
1.0303535014
1.0003841616
1.0584603370
1.0020635790
1.0034565419
1.0524635318
1.0760986350
1.0003914794
1.0024861600
1.0743638260
1.0569241709
1.0796826084
1.0628686569
1.0138281081
1.0002119255
1.0560363020
1.0599897406
1.0002444756
1.0490157278
1.0363759422
1.0556183075
1.0011647985
1.0814350185
1.0609859076
1.0820233681
1.0024630775
1.0510436606
1.0783971951
1.0013768538
1.0003430214
1.0585036360
1.0001366853
1.0024054567
1.0761171119
1.0005827352
1.0003341091
1.0558765356
1.0036854546
1.0008263273
1.0006148026
1.0000888704
1.0486220343
1.0710168279
1.0019809900
1.0524635859
1.0430019250
1.0736002399
1.0002933953
1.0842855747
1.0020639639
1.0004712653
1.0011014955
1.0007471483
1.0001844897
1.0677466688
1.0001473664
1.0632994645
1.0616832441
1.0609818830
1.0599883892
1.0016118922
1.0002165586
1.0000847477
1.0810372054
1.0003924646
1.0781190204
1.0655686514
1.0002450297
1.0510440876
1.0489527887
1.0656552927
1.0621562643
1.0010034126
1.0013771823
1.0832021214
1.0014029328
1.0794244934
1.0002122350
1.0612778633
1.0577861278
1.0007004913
1.0001424567
1.0710151370
1.0703300034
1.0003344655
1.0527146140
1.0486203195
1.0558106644
1.0586743933
1.0008273058
1.0000702876
1.0656623047
1.0011014840
1.0844277820
1.0751385167
1.0000208118
1.0827667872
1.0612772443
1.0016161771
1.0006717192
1.0656553323
1.0000848321
1.0014027475
1.0006404125
1.0592326482
1.0002167829
1.0616483345
1.0602504971
1.0000372891
1.0007541553
1.0636208903
1.0010078015
1.0858161643
1.0002597634
1.0612325847
1.0808614913
1.0000260459
1.0577202957
1.0560319447
1.0849401117
1.0000550667
1.0702847358
1.0575235896
1.0543778627
1.0527140874
1.0868891440
1.0000372821
1.0000311403
1.0678375246
1.0592330713
1.0602497050
1.0583262098
1.0002604023
1.0006421982
1.0683174050
1.0010695829
1.0865275304
1.0007541049
1.0000166938
1.0751124968
1.0587157483
1.0573502928
1.0004245751
1.0707236671
1.0875795984
1.0878622593
1.0000995957
1.0000260497
1.0543884772
1.0000372906
1.0000914824
1.0000467273
1.0838184878
1.0571380794
1.0000516495
1.0876642219
1.0727379203
1.0832831770
1.0734522843
1.0796993104
1.0888212220
1.0573505973
1.0919164709
1.0626718202
1.0871159875
1.0756581205
1.0678366575
1.0918959549
1.0603798109
1.0618753107
1.0010738282
1.0709824606
1.0672163142
1.0814661312
1.0776620821
1.0928758491
1.0852033797
1.0753559043
1.0905576939
1.0587155675
1.0640014730
1.0683170681
1.0001627100
1.0934255794
1.0893138854
1.0000915941
1.0146352571
1.0889345621
1.0000467258
1.0379137098
1.0870044762
1.0002773667
1.0037758945
1.0010900007
1.0666464236
1.0921663263
1.0077898533
1.0000683915
1.0248487563
1.0787057315
1.0001209775
1.0016806458
1.0006956628
1.0522850191
1.0900177243
1.0862686144
1.0792605302
1.0653926689
1.0904671360
1.0954605214
1.0756598043
1.0919087446
1.0734525398
1.0677650811
1.0955431053
1.0824513617
1.0768882434
1.0626720287
1.0851392395
1.0778522488
1.0815187160
1.0705776352
1.0885993468
1.0842761931
1.0789054821
1.0618748206
1.0883743256
1.0941226402
1.0732605885
1.0911514502
1.0963842931
1.0807017231
1.0724047379
1.0833137496
1.0776649863
1.0797098401
1.0672154392
1.0192774344
1.0924246029
1.0968858635
1.0917741022
1.0753889789
1.0464533576
1.0721468374
1.0016883021
1.0004390279
1.0004526736
1.0892052285
1.0000835744
1.0016825404
1.0194324274
1.0054431971
1.0869452721
1.0001629934
1.0055121937
1.0446056083
1.0308948753
1.0957825875
1.0853716463
1.0618384963
1.0316562411
1.0824693139
1.0025594442
1.0010944794
1.0002051994
1.0934217881
1.0001741979
1.0010902351
1.0107771838
1.0025259903
1.0108315742
1.0587559161
1.0888575174
1.0818660932
1.0752125069
1.0677650658
1.0799061553
1.0845765166
1.0936586795
1.0987194814
1.0845869389
1.0955441734
1.0809975466
1.0936731124
1.0988830821
1.0885089351
1.0792645056
1.0865930980
1.0812387923
1.0724042116
1.0767728535
1.0827173056
1.0921744229
1.0996450446
1.0828281688
1.0948044547
1.0807065445
1.0912780063
1.0976034475
1.0865260881
1.0773617416
1.0954901593
1.0537071799
1.0825194168
1.0001443437
1.0934548054
1.0076122863
1.0250443023
1.0958372876
1.0077929820
1.0025356826
1.0024963790
1.0007092230
1.0999045338
1.0904277335
1.0553649468
1.0801823210
1.0251590007
1.0007063760
1.0905710976
1.0682877551
1.0705502606
1.0002912493
1.0968899094
1.0036659086
1.0385890955
1.0146697814
1.0037811237
1.0016427681
1.0003344207
1.0988611039
1.0393336021
1.0883264048
1.0145144923
1.0016896810
1.0046265215
1.0958746919
1.1017420930
1.0458854594
1.0871273193
1.0818710910
1.0022060545
1.0088640695
1.0970754931
1.1002058202
1.1023305899
1.0915352563
1.0620378520
1.0175474221
1.0021520353
1.0788286962
1.0970863961
1.0987248601
1.0861560251
1.0913293116
1.0833513138
1.1031686809
1.1062190560
1.0781308938
1.0818247456
1.0889232799
1.0288312582
1.0836036528
1.0067565745
1.0979685553
1.1027720352
1.0549118412
1.0851362833
1.0803711370
1.0011528083
1.0061305421
1.0942598861
1.0959779172
1.1012503840
1.0893079538
1.0527649236
1.0235377860
1.0012605371
1.0767732687
1.0955675354
1.0981681041
1.0842100330
1.0885753652
1.0828331443
1.1043532462
1.1049984687
1.0842465924
1.0799873352
1.0775346794
1.0167384397
1.0826857302
1.1117988152
1.0010709892
1.1026819977
1.0318015132
1.1174674402
1.0035842949
1.0639014390
1.0010888795
1.0777137459
1.0750948269
1.0920584645
1.0103514098
1.0914831396
1.1202885566
1.0985208351
1.0036737305
1.0968802723
1.1154502479
1.0106962568
1.1137725367
1.0002399341
1.0994639171
1.0316841026
1.0936727130
1.0864772596
1.0628225510
1.1172152742
1.0881726930
1.1132339841
1.0005243066
1.1015925973
1.0470311750
1.1159917812
1.0023933721
1.0474634986
1.0025043036
1.0793746765
1.0770581937
1.0847916375
1.0051610130
1.0942911692
1.1193271211
1.0945302560
1.0053915366
1.0999101199
1.1193441010
1.0193777463
1.1180634706
1.0004672679
1.0190235735
1.0928464198
1.0765328546
1.1175608563
1.0780425115
1.1013510660
1.0394779733
1.0312948200
1.0049945382
1.1064097603
1.1002055045
1.1003227371
1.0951118349
1.0893764517
1.0032426178
1.0735810908
1.0100666263
1.0032409234
1.1090191982
1.0945799890
1.0379432448
1.0951092334
1.1062184608
1.0928463890
1.1075910605
1.1031982532
1.0850951428
1.0131730104
1.0021524226
1.0639550080
1.0262588287
1.0379721331
1.0590391184
1.0010725492
1.0812867412
1.1021840624
1.0288181151
1.1004882235
1.1062988331
1.1081978103
1.0037722521
1.0078640743
1.0928454281
1.0876622764
1.0039734545
1.0620239691
1.0088619691
1.0138556157
1.0836082891
1.1017459692
1.0889202627
1.0712682199
1.0030103921
1.1000752558
1.0245654769
1.0186368995
1.0358110328
1.0023225764
1.1077578194
1.1032017156
1.1019072834
1.0866671085
1.0869746867
1.0022068854
1.0644816966
1.0070554088
1.1074925773
1.0919363157
1.0298999162
1.0887010484
1.1095962744
1.1095969189
1.1000394596
1.0842140309
1.0093598950
1.0043824420
1.0472348329
1.0342320966
1.0683102588
1.0005922267
1.0799887858
1.0991140287
1.0928054248
1.0446830254
1.0990791368
1.1075906372
1.0023291175
1.0112572714
1.0890247127
1.0924650885
1.0021987033
1.0775274626
1.0167332696
1.0097692406
1.0824894664
1.1014121808
1.0959769990
1.0630195759
1.0913199925
1.0003840582
1.0484942436
1.0117600507
1.0051640198
1.0970328622
1.0782406365
1.0393122149
1.0942914628
1.1026918504
1.0783783224
1.0913724270
1.1152093473
1.0057985500
1.0845922243
1.0750957529
1.0862552734
1.0016176074
1.1116694123
1.0979329722
1.0191481388
1.0143001130
1.0783351517
1.0917693938
1.0348544122
1.1117990223
1.0894833946
1.1150769674
1.1150765286
1.1027910862
1.0997261997
1.0711740125
1.0047530317
1.1150178073
1.1193624955
1.0826356943
1.0796836523
1.1040739876
1.1046540442
1.0756583785
1.0805595752
1.1047178062
1.0718413469
1.0832662078
1.0885452509
1.0007212666
1.0320484034
1.0165332648
1.0074662392
1.0821324393
1.0556761180
1.0847920064
1.1041086017
1.0963467010
1.1193621416
1.0037573510
1.0835412374
1.0770592774
1.0848773174
1.0035899609
1.1058671815
1.0947284698
1.0105917258
1.0249530733
1.0756591993
1.0809888795
1.0443028914
1.1117016312
1.0920587129
1.1193268061
1.1070262649
1.1007534663
1.1026851107
1.0833212130
1.0036582668
1.1172153158
1.0819737837
1.0793759284
1.0860620833
1.1046341306
1.1020275355
1.0803239030
1.0783345761
1.1041483151
1.0896605041
1.1203597118
1.0845956502
1.0979321344
1.1090186527
1.0826386341
1.0735781735
1.1097634328
1.1046351562
1.1269815667
1.1048057699
1.1034454426
1.0824521452
1.1236951314
1.0057315284
1.1053075465
1.0983212945
1.0671605632
1.1041497421
1.1236875118
1.0983203214
1.0842396359
1.1031973743
1.1013585539
1.0131796032
1.0011530054
1.1107498156
1.1043535706
1.0057313697
1.1194065893
1.0970792029
1.0394744441
1.0235177505
1.1143925185
1.0625086856
1.1013501116
1.0848251865
1.0951103424
1.0834462251
1.1111834143
1.1165631838
1.0120312602
1.1073583954
1.0665953398
1.0015459379
1.0180670573
1.1049977776
1.0510962565
1.0050740018
1.1092072943
1.0731548701
1.0510904137
1.0205870879
1.0913197296
1.1229706098
1.0826287791
1.0881014275
1.0862579400
1.0217974106
1.1248593118
1.0835446718
1.0947275208
1.1124842076
1.0819758766
1.0866651095
1.1111828660
1.0977033355
1.1047190863
1.1271983028
1.1034866934
1.1100787353
1.0827606333
1.1259715985
1.1015602992
1.0582281650
1.1027919618
1.1278984984
1.1019640050
1.0956343998
1.1059667870
1.0940055911
1.0016201249
1.0469861507
1.0039732915
1.1205600853
1.0923635675
1.0568866865
1.1182385583
1.0501338316
1.0828348070
1.1000383715
1.0050743028
1.1124845838
1.1147232516
1.1086653286
1.0724323652
1.0245631843
1.0072595189
1.1089707299
1.0570268274
1.0415919466
1.0138541495
1.0885464847
1.1217369614
1.0753052146
1.0848471289
1.0848799120
1.0186087118
1.1007533693