<VTKFile type="UnstructuredGrid" version="0.1">
	<UnstructuredGrid>
		<Piece NumberOfPoints="1862" NumberOfCells="3498">
			<CellData>
				<DataArray type="Int32" Name="type" NumberOfComponents="1" Format="ascii">
0
0
0
0
0
0
0
0
0
0
0
0
0
0
0
0
1
0
0
1
0
0
0
0
0
0
0
0
0
0
0
0
0
1
0
0
0
0
0
0
0
0
0
0
0
0
0
0
0
0
1
0
0
0
0
0
0
0
0
0
0
1
0
0
0
0
0
0
0
0
0
0
0
0
0
0
0
0
0
0
0
0
0
0
0
0
0
0
0
0
0
0
0
0
0
0
0
0
0
0
0
0
0
0
0
0
0
0
0
0
0
0
0
0
0
0
0
0
0
0
0
0
0
1
0
0
0
0
0
0
0
0
0
0
0
0
0
0
0
0
0
0
0
0
0
0
0
0
0
0
0
1
0
1
1
0
0
0
0
0
0
0
0
0
0
0
0
0
1
0
1
0
0
0
0
1
0
0
0
0
0
0
0
0
1
1
0
0
0
0
0
1
0
0
0
0
0
0
0
0
1
0
0
0
0
0
0
0
0
0
0
0
0
0
0
0
0
0
0
0
0
0
0
0
0
0
0
0
0
0
0
0
0
1
0
0
0
0
0
0
0
0
0
0
0
0
0
0
0
0
0
0
0
0
0
0
0
0
0
0
0
0
0
0
0
0
0
0
0
0
0
0
0
0
0
0
0
0
0
0
0
1
0
0
0
0
0
0
0
0
0
0
0
0
0
0
0
0
0
0
0
0
0
0
0
0
0
0
0
0
0
0
0
0
0
0
0
0
0
0
0
0
0
0
0
0
0
0
0
0
0
0
1
0
0
0
0
0
0
0
0
0
0
0
0
0
0
0
0
0
0
0
0
0
0
0
0
0
0
0
0
0
0
0
0
0
0
0
0
0
0
0
0
0
0
0
0
0
0
0
0
0
0
0
0
0
0
0
0
0
1
0
0
0
0
0
0
0
0
0
0
0
0
0
0
0
0
0
0
0
0
0
0
0
0
0
0
0
0
0
0
0
0
0
0
0
0
0
0
0
0
0
0
0
0
0
0
0
0
0
0
0
0
0
0
0
0
0
0
0
0
0
0
0
0
0
0
0
0
0
0
0
0
0
0
0
0
0
0
0
0
0
0
0
0
0
0
0
0
0
0
0
0
0
0
0
0
0
0
0
0
0
0
0
0
0
0
0
0
0
0
0
0
0
0
0
0
0
0
0
0
0
0
0
0
0
0
0
0
0
0
0
0
1
0
0
0
0
0
0
0
0
0
0
0
0
0
0
0
0
0
0
0
1
0
0
0
0
0
0
0
0
0
0
0
0
0
0
0
0
0
0
0
0
0
0
0
0
0
0
0
0
0
0
0
0
0
0
0
0
0
0
0
0
0
0
0
0
0
0
0
0
0
0
0
0
0
1
0
0
0
0
0
0
0
0
0
0
0
0
0
0
0
0
0
0
0
0
0
0
0
1
0
0
0
0
0
0
0
0
0
0
0
0
0
0
0
0
0
0
0
1
0
0
0
1
0
0
0
0
0
0
0
0
0
0
0
0
0
0
0
0
0
0
0
0
0
0
0
0
0
1
0
0
0
0
0
0
0
1
0
0
0
0
0
0
0
0
0
0
0
0
0
0
0
0
0
0
0
0
0
0
0
0
0
0
1
0
0
0
0
0
0
0
1
0
0
0
0
0
0
1
0
0
0
0
0
0
0
0
0
0
0
0
0
0
0
0
0
0
0
0
0
0
0
0
0
0
0
0
0
0
0
0
0
0
0
0
0
0
1
0
0
0
0
0
1
0
0
0
0
0
0
0
1
0
0
0
0
0
0
0
0
0
0
0
0
0
1
0
0
0
0
0
0
0
0
0
0
0
0
0
0
0
0
0
0
0
0
0
0
0
0
0
0
0
0
0
0
0
0
0
0
0
0
0
0
0
0
0
0
0
0
0
0
0
0
0
0
0
0
0
1
0
0
0
0
0
0
0
0
0
0
0
0
0
0
0
0
0
0
0
1
0
0
0
0
0
0
0
0
0
1
0
0
0
0
0
0
0
0
0
0
0
0
0
0
0
0
0
0
0
0
0
0
0
0
0
0
0
0
0
1
0
1
0
0
0
0
0
0
0
0
0
0
0
0
0
0
0
0
0
0
0
0
0
0
0
0
0
0
0
1
0
0
0
1
0
0
0
0
0
0
0
0
0
0
0
0
0
0
0
0
0
0
0
0
0
0
0
0
0
0
0
0
1
0
0
0
0
0
0
0
0
0
0
0
0
0
0
0
0
0
0
0
0
0
0
0
0
0
1
0
0
0
0
0
0
0
0
0
0
0
0
0
0
0
0
0
0
0
0
0
0
0
1
0
0
0
0
0
0
1
0
0
0
0
0
0
0
0
0
0
0
1
0
0
0
0
0
0
0
0
0
0
0
0
0
0
0
0
0
0
0
0
1
0
0
0
0
0
0
0
0
0
0
0
1
0
0
0
0
0
0
0
0
0
0
0
0
0
0
0
0
0
0
0
0
0
1
0
0
0
0
0
0
0
0
0
1
1
0
1
0
1
0
0
0
0
0
0
0
0
0
0
0
1
0
0
0
0
0
1
1
0
0
0
0
0
0
1
0
0
0
0
0
1
1
1
0
0
0
0
0
0
0
0
0
0
0
0
1
1
0
0
1
0
0
0
0
0
1
0
0
0
1
0
1
0
0
0
0
0
0
0
1
0
0
0
0
0
0
0
1
0
0
1
0
0
0
0
0
0
0
0
0
0
0
0
0
0
0
1
0
0
0
0
0
0
0
0
0
0
0
0
0
0
0
0
0
0
0
0
0
0
0
0
0
0
0
0
0
0
0
0
0
0
0
0
1
0
0
0
0
0
0
1
0
0
0
1
0
0
0
0
0
0
0
0
0
0
0
1
0
0
0
0
0
0
0
0
0
0
0
0
0
0
0
0
0
0
0
0
0
0
0
0
0
0
0
0
0
0
0
0
0
0
0
0
0
0
0
0
1
1
0
0
0
0
0
0
0
0
0
0
0
0
0
1
0
0
0
0
0
0
0
0
0
0
0
0
0
0
0
0
0
0
0
0
0
0
0
0
0
0
0
0
0
0
0
0
0
0
0
0
0
0
0
0
0
0
0
0
0
0
0
0
0
0
0
0
0
0
0
0
0
0
0
0
0
0
0
0
0
0
0
0
0
0
0
0
1
1
0
0
0
0
0
0
0
0
1
0
0
0
0
0
0
0
0
0
0
0
0
0
0
0
0
0
0
0
0
0
0
0
1
0
0
0
0
0
0
0
0
0
0
0
0
0
0
0
0
1
0
0
0
0
0
0
0
0
0
0
0
0
0
0
0
0
0
0
0
0
0
0
0
0
0
0
0
0
0
0
0
0
0
0
0
0
0
0
0
0
0
0
0
0
0
0
0
0
0
0
0
0
0
0
0
0
0
0
0
0
0
0
0
0
0
0
0
0
0
0
0
0
0
0
0
0
0
0
0
0
0
0
0
0
0
0
0
0
0
0
1
1
0
0
0
0
0
1
0
0
0
0
0
0
0
0
0
0
0
0
1
0
0
0
0
0
0
0
0
0
0
0
0
0
0
0
0
0
0
0
0
0
0
0
0
0
0
0
0
0
0
0
0
0
0
0
0
0
0
0
0
0
0
0
0
0
0
0
0
0
0
0
0
0
1
0
1
0
0
0
0
0
0
0
0
0
0
0
0
0
0
0
0
0
0
1
0
0
0
0
0
0
0
0
0
0
0
0
0
0
0
0
0
0
0
0
0
0
0
0
0
0
0
0
0
0
0
0
0
0
0
0
0
0
0
0
0
0
0
0
0
0
0
0
0
0
0
0
0
0
0
0
0
0
0
0
0
0
0
0
0
0
0
0
0
0
1
0
0
0
0
0
0
0
0
0
0
1
0
0
0
0
0
0
0
0
0
0
0
0
0
0
0
0
0
0
0
0
0
0
0
0
0
0
0
0
0
0
0
0
0
0
0
0
0
1
0
0
0
0
0
0
0
0
0
0
0
0
0
0
0
0
0
0
0
0
0
0
0
0
0
0
0
0
0
0
0
0
0
0
0
0
0
0
0
0
0
0
0
0
0
0
0
0
0
0
0
0
0
0
0
0
0
0
0
0
0
0
0
0
0
0
0
0
0
0
0
0
0
0
0
0
0
0
0
0
0
1
0
0
0
0
0
0
0
0
0
0
0
0
0
0
0
0
0
0
0
0
0
0
0
0
0
0
0
0
0
0
0
0
0
0
0
0
0
0
0
0
0
0
0
0
0
0
0
0
0
0
0
0
0
0
0
0
0
0
0
0
0
0
0
0
0
0
0
0
0
0
0
0
0
0
0
0
0
0
0
0
0
0
0
0
0
0
0
0
0
0
0
0
0
0
0
0
0
0
0
0
0
0
0
0
0
0
0
0
0
0
0
0
0
0
0
0
0
0
0
0
0
0
0
1
0
0
0
0
0
0
0
0
0
0
0
0
0
0
0
0
0
0
0
0
0
0
0
0
0
0
0
0
0
0
0
0
0
0
0
0
0
0
0
0
0
0
0
0
0
0
0
0
0
0
0
0
0
0
0
0
0
0
0
0
0
0
0
0
0
0
0
0
0
0
0
0
0
0
0
0
0
0
0
0
0
1
0
0
0
0
0
0
0
1
0
0
0
0
0
0
0
0
0
0
0
0
0
0
0
0
0
0
0
0
0
0
0
0
0
0
0
0
0
0
0
0
0
0
0
0
0
1
0
0
0
0
0
0
0
0
0
0
0
0
0
0
0
0
0
0
0
0
0
1
0
0
0
0
0
0
0
0
0
0
0
0
1
1
0
0
0
0
0
0
0
0
0
0
0
0
0
0
0
1
1
0
1
0
0
0
0
0
0
0
0
0
1
0
0
0
0
0
0
1
0
0
0
0
0
0
0
0
0
0
1
0
0
0
0
1
0
1
0
0
0
0
0
0
0
1
0
0
0
1
0
0
0
1
0
1
1
0
0
1
1
0
0
0
1
0
0
0
1
0
0
0
0
0
0
0
0
0
1
0
0
0
0
0
0
1
0
0
0
0
0
0
0
0
0
0
0
0
0
0
0
0
0
0
0
0
0
0
0
0
0
0
0
1
0
0
1
0
0
0
0
0
0
0
0
0
0
0
0
0
0
0
0
0
0
1
0
0
1
0
0
0
0
0
0
0
0
0
0
0
1
0
0
1
0
0
0
0
0
0
0
0
0
0
0
1
1
0
0
0
0
0
0
0
0
0
0
0
0
1
0
0
0
0
0
0
0
0
0
0
0
0
0
0
0
0
0
1
0
0
0
0
0
0
0
0
0
0
0
0
0
0
0
0
0
1
0
0
0
0
0
0
0
0
0
0
0
0
0
0
0
0
0
0
0
0
0
0
0
0
0
0
0
0
0
0
0
0
0
0
0
0
0
0
0
0
1
0
0
0
0
0
0
0
0
0
0
0
0
0
0
0
0
0
0
0
0
0
0
0
0
0
0
0
0
0
0
0
0
0
0
0
0
0
0
0
0
0
0
0
0
0
1
0
0
0
0
0
0
0
0
0
0
0
0
0
0
0
0
0
0
0
0
0
0
0
0
0
0
0
0
0
0
0
0
0
0
0
0
0
0
0
0
0
0
0
0
0
0
0
1
0
0
0
0
0
0
0
0
0
0
1
0
0
0
0
0
0
0
0
0
0
0
0
0
0
0
1
0
0
1
0
0
0
0
0
0
0
0
0
0
0
0
0
0
0
0
0
0
0
0
0
0
0
1
0
0
0
0
0
0
0
0
0
0
0
0
0
0
0
0
0
0
0
0
0
0
0
0
0
0
0
0
0
0
0
0
0
0
0
1
0
0
0
0
0
0
0
0
0
0
0
0
0
0
0
0
0
0
0
0
0
0
0
0
0
0
0
0
0
0
0
0
0
0
0
0
0
0
0
0
0
0
0
0
0
0
0
0
0
0
0
0
0
0
0
0
0
0
0
0
0
0
0
0
0
0
0
0
0
0
0
0
0
0
0
0
1
0
0
0
0
0
0
0
0
0
0
0
0
0
0
0
0
0
0
0
0
0
0
0
0
0
0
0
0
0
0
0
0
0
0
0
0
0
0
0
1
0
0
0
0
0
0
0
0
0
0
0
0
1
1
0
0
0
0
0
0
0
0
0
0
0
0
0
0
0
0
0
0
0
0
0
0
0
0
0
0
0
0
0
0
0
0
0
0
0
0
0
0
0
0
0
0
0
0
0
0
0
0
0
0
0
0
0
0
0
0
0
0
0
0
0
0
0
0
0
0
0
0
0
0
0
0
0
0
0
0
0
0
0
0
0
0
0
0
0
0
0
0
0
0
0
0
0
0
0
0
0
0
0
0
0
1
0
1
0
0
0
0
0
0
0
1
1
1
1
0
0
0
0
0
0
0
0
0
0
0
0
0
0
0
0
0
0
0
0
0
0
0
0
0
0
0
0
1
1
0
0
0
0
0
0
0
0
0
0
0
0
0
0
0
0
0
0
1
0
0
0
0
0
0
0
1
1
0
1
1
0
0
1
0
0
0
0
0
0
0
1
0
1
0
0
0
0
0
0
0
0
0
0
0
0
0
0
0
0
0
0
0
0
0
0
0
0
0
0
0
1
1
0
0
0
1
1
0
0
0
0
1
0
0
1
0
1
0
0
0
0
0
1
0
0
0
1
0
0
0
0
0
0
0
0
0
0
0
0
0
0
0
0
0
0
0
0
0
0
0
0
0
0
0
1
0
0
0
0
0
0
1
0
0
0
0
0
0
0
0
0
0
0
0
0
0
0
0
0
0
0
0
0
0
0
0
0
0
0
0
0
1
0
1
0
0
0
0
0
0
0
1
0
0
0
0
0
0
0
0
0
0
0
1
0
0
0
0
0
0
0
0
0
1
0
0
0
0
0
0
0
1
0
0
0
0
0
0
0
1
0
0
0
0
0
0
0
0
0
0
0
0
0
0
0
0
0
0
0
1
0
1
0
0
0
0
0
1
0
0
0
0
0
0
0
0
0
0
0
0
0
0
0
0
0
0
0
0
0
0
0
0
0
1
0
1
0
0
0
0
0
0
0
0
0
1
0
0
0
0
0
1
0
0
0
0
0
0
0
0
0
0
0
0
0
0
0
1
0
0
0
0
0
0
0
0
1
0
0
0
0
0
0
0
0
0
0
0
0
0
0
0
0
0
0
0
0
0
0
0
0
0
0
0
0
0
0
1
0
0
0
0
0
0
0
0
0
0
0
0
0
0
0
0
1
0
0
0
0
0
0
0
0
1
0
0
0
0
0
0
0
0
0
1
0
0
0
0
0
1
0
0
0
0
0
0
0
0
0
0
0
0
0
0
0
0
0
0
0
1
0
0
0
0
0
0
1
0
0
0
0
0
0
0
0
1
0
0
0
0
0
0
0
0
0
0
0
0
0
0
1
0
0
1
0
0
0
1
0
0
0
0
0
0
0
0
0
0
0
0
0
0
0
0
1
0
0
0
0
0
0
0
0
0
0
1
0
1
0
0
0
0
0
0
1
0
0
0
0
0
0
0
0
0
0
0
0
0
0
0
0
0
0
0
0
0
0
0
0
0
0
0
1
1
0
0
0
0
0
0
1
0
0
0
0
0
0
0
0
0
0
0
0
0
1
0
0
0
0
0
0
0
1
0
0
0
0
0
0
0
0
0
0
0
0
0
0
0
0
0
0
0
0
0
0
0
0
0
0
0
1
0
0
0
0
0
0
0
0
0
0
1
0
0
1
0
0
0
0
0
0
0
0
0
0
0
0
0
0
0
0
0
0
0
0
0
0
0
0
0
0
0
0
0
1
0
0
0
0
0
0
0
1
0
0
0
0
0
0
0
1
0
0
0
0
1
0
0
0
0
0
0
0
0
0
0
0
1
0
1
0
0
0
1
0
				</DataArray>
				<DataArray type="Float64" Name="h" NumberOfComponents="1" Format="ascii">
1.1320638408
1.1320610389
1.1383537380
1.1395866455
1.1359464601
1.1372953907
1.1378047678
1.1360761904
1.1363874665
1.1357973149
1.1390580045
1.1393008042
1.1301097102
1.1395582452
1.1342584461
1.1241537221
1.1404936272
1.1333127337
1.1300006902
1.1409526222
1.1390660925
1.1246736370
1.1277654137
1.1357259151
1.1405742746
1.1226386526
1.1190416365
1.1193326558
1.1301005309
1.1390380872
1.1408905815
1.1301753392
1.1215592140
1.1394476458
1.1339597640
1.1319878160
1.1376479817
1.1222181653
1.1174409218
1.1369917002
1.1322370466
1.1241735710
1.1220756514
1.1249370719
1.1337785417
1.1215439308
1.1249869999
1.1321656614
1.1131964331
1.1134617068
1.1381743296
1.1272308227
1.1275171222
1.1200564183
1.1290163944
1.1162517783
1.1245897248
1.1297554082
1.1259783919
1.1237952349
1.1255428411
1.1279552040
1.1140748151
1.1295262977
1.1218514049
1.1171390705
1.1130684847
1.1144504460
1.1268696998
1.1295337348
1.1269382938
1.1306927907
1.1164937357
1.1192680177
1.1227559453
1.1097012729
1.1289266800
1.1236967526
1.1317243151
1.1133122629
1.1218173266
1.1169449359
1.1103557930
1.1140889382
1.1115252793
1.1116440082
1.1195554939
1.1128384808
1.1204027657
1.1119023682
1.1173563857
1.1120090967
1.1224146915
1.1125639945
1.1131944106
1.1133655941
1.1114388391
1.1137699019
1.1150956161
1.1194666402
1.1110808677
1.1219782148
1.1146556981
1.1326434767
1.1335583231
1.1120354785
1.1101648078
1.1124520500
1.1227107028
1.1149299273
1.1126953895
1.1123130339
1.1193581938
1.1155447428
1.1158986714
1.1094822790
1.1163346288
1.1363573604
1.1120396700
1.1166246632
1.1355211785
1.1129245687
1.1084712313
1.1403255110
1.1170462344
1.1120426641
1.1173135804
1.1386734061
1.1108692992
1.1093506736
1.1132015123
1.1116339046
1.1176194023
1.1075381370
1.1388526298
1.1134850252
1.1213611004
1.1064909456
1.1174580695
1.1175610410
1.1357337855
1.1405802961
1.1111034659
1.1152620380
1.1104678391
1.1155540096
1.1193846481
1.1027684487
1.1384420183
1.0989676295
1.1214416639
1.1047996591
1.1042860172
1.0971049998
1.1197596881
1.1058174060
1.0976283094
1.1331231593
1.0984590175
1.1363291717
1.1145181146
1.1026085043
1.1185170248
1.1352231101
1.1354683882
1.1065583530
1.1130699855
1.1165169182
1.1397814493
1.1042587154
1.0995762702
1.1389105771
1.0966326840
1.1307274365
1.1109588118
1.0891576195
1.1124692006
1.1047484891
1.0906196038
1.1331428978
1.1070753227
1.1092058365
1.1346165983
1.1077528005
1.1395130153
1.1382333842
1.1110813845
1.0937802761
1.1391050621
1.1378198390
1.1076782829
1.0915894562
1.1359543148
1.1090927608
1.0893526066
1.1058822435
1.1274819062
1.1065877996
1.1075171748
1.0977535993
1.1381830335
1.1076813738
1.1380136458
1.0949041631
1.1059831148
1.1265607686
1.1127681190
1.1178882012
1.1065171635
1.1088931298
1.1047634620
1.1371382852
1.1269507295
1.1261294992
1.1151048198
1.1041773188
1.1107460625
1.1238088904
1.1058136819
1.1320176326
1.1060142037
1.1129823234
1.1071985061
1.1119606817
1.1073667741
1.1033037951
1.1113631459
1.1100044985
1.1058549988
1.1125973432
1.0989181593
1.1126910039
1.1087316030
1.1001819014
1.1064581402
1.1109794093
1.1040243494
1.1055566432
1.1315829608
1.1025469694
1.1012710872
1.1104049890
1.1198394552
1.1067227972
1.1143974984
1.1096188911
1.1232527585
1.1045621845
1.1077147646
1.1166139777
1.1039353586
1.1012370488
1.1203383407
1.1038835317
1.1017233046
1.1194451634
1.1078851322
1.1117389260
1.1261272455
1.1124650314
1.1016590106
1.1062614660
1.1091406439
1.1118560828
1.1075019413
1.1087246542
1.1080737723
1.1043835373
1.1024192730
1.1140542125
1.1141024075
1.1054736242
1.1132624366
1.1101980016
1.1114453158
1.1047612984
1.1076875370
1.1104736744
1.1131186823
1.1060267984
1.1126245277
1.1050485111
1.1057277640
1.1107885647
1.1144542490
1.1131386470
1.1088731356
1.0980998733
1.1160500556
1.1120805537
1.1025511649
1.1012834760
1.1021280270
1.1065759598
1.0965255743
1.0987803050
1.1008349339
1.0997070936
1.1084987245
1.1194434979
1.1117220584
1.1041818160
1.1007409545
1.1002193353
1.1021205164
1.0969510529
1.0975455205
1.1015985797
1.1127145434
1.1058350752
1.1097706505
1.1088688554
1.1074844544
1.1036371093
1.1170707974
1.1128318189
1.0967423221
1.1149609627
1.1131073606
1.1005637934
1.1121819050
1.1066874493
1.1154797591
1.1129328898
1.1073348845
1.1081665198
1.1105769560
1.1105152240
1.1113116026
1.1141104406
1.1151577165
1.1153163082
1.1102650009
1.1044291712
1.1139329330
1.1052081250
1.1166069917
1.0954099141
1.1285259179
1.0910331238
1.0973545843
1.0955143384
1.1078661948
1.0996201971
1.0931969358
1.0905710670
1.0980861158
1.1034146636
1.1291357131
1.1091387601
1.0998700116
1.1178623758
1.0962489188
1.1041852503
1.1334833688
1.0903208222
1.1121027638
1.0949428045
1.0951019291
1.1235065876
1.1240451689
1.1342564641
1.1117213270
1.0979424978
1.1013120178
1.0914696115
1.1070759036
1.1088794800
1.1129070746
1.1031097181
1.1170374064
1.1298979636
1.0995284748
1.1182725995
1.1135917636
1.1129466290
1.1172916848
1.0589630549
1.1202087184
1.1060395567
1.1036948213
1.1169533174
1.1128281260
1.0926898679
1.1172023221
1.0965036682
1.1066072546
1.1097999531
1.1091895464
1.0765236547
1.1156990910
1.1047487527
1.1116779959
1.1066735116
1.1199421666
1.1151043187
1.0439570420
1.0466851681
1.0540899198
1.1005639619
1.1074935216
1.1179225287
1.0948771924
1.1154263478
1.1042524493
1.1154952544
1.1189951061
1.1051205808
1.1081293274
1.0868596084
1.1110173702
1.1079269890
1.1188980771
1.1104427047
1.0879725780
1.1304114171
1.1238532536
1.0910022344
1.1209338067
1.1079550691
1.1085767477
1.1064941170
1.0890899930
1.1269062012
1.1351127142
1.1136607247
1.1255511293
1.0988113376
1.1265622796
1.0990162145
1.1107836329
1.1380395201
1.1196654971
1.1326861412
1.1143075742
1.1151935476
1.1354701087
1.1215521632
1.1261034987
1.1098959309
1.1116977238
1.1201746458
1.0881518190
1.1278357567
1.1109596869
1.0890402950
1.1096008632
1.1145551836
1.1161880332
1.1290130081
1.1214886460
1.1237767223
1.1031099240
1.1066499374
1.0963569008
1.1064941048
1.1435585893
1.1360477768
1.1157447601
1.1414538611
1.0948333374
1.1013875871
1.0807971546
1.1183054313
1.0935041264
1.1147321359
1.1116274837
1.1070580739
1.1055456396
1.0794526270
1.1217144825
1.0876332188
1.1191743760
1.0959654054
1.1044135710
1.1104072521
1.1471741364
1.0849062562
1.0889162283
1.0518916068
1.0463744111
1.1022018348
1.0793275990
1.1205458024
1.1399817860
1.1419758317
1.1208495012
1.0441752958
1.1124763643
1.0369848795
1.1135040494
1.1056551806
1.1511819092
1.0846375038
1.0439578947
1.0647424351
1.0837474655
1.1480172476
1.1170410830
1.0298444304
1.1264272707
1.1333887644
1.0723365292
1.0540902722
1.1005639565
1.0919701679
1.1087039966
1.0937014027
1.1045467682
1.1160067741
1.0441745304
1.0993884916
1.1213960666
1.0876322809
1.1108550929
1.0889168447
1.1232371674
1.1105550725
1.0835118636
1.0824753002
1.0993900652
1.1134085769
1.1127623070
1.1319167531
1.0744715726
1.1313186095
1.0050418418
1.1170274763
1.1096246400
1.0983574096
1.1251311564
1.0807950829
1.1186745727
1.0739580390
1.0794517874
1.1046411690
1.0846378484
1.0837456327
1.0937022195
1.1096247458
1.1022032138
1.1003839382
1.0498225883
1.0885845421
1.0823307704
1.0777395056
1.0253173711
1.0959666751
1.0932444024
1.0319429613
1.1423264677
1.0675069463
1.0731677570
1.1086883374
1.0790253741
1.1096176616
1.1019410647
1.0188856501
1.1327826170
1.1384087377
1.0938194917
1.0135657795
1.1360501447
1.0793259620
1.1070723587
1.1215622763
1.0919704461
1.1116269159
1.1188167488
1.1237778384
1.0883470565
1.1154448433
1.1288612415
1.1180688965
1.1079560897
1.0720164382
1.1056124382
1.1121725122
1.1213964015
1.0954315001
1.0728153014
1.1161882780
1.1264276260
0.9815495753
1.1138754335
1.0622455321
1.1261150909
1.1189030369
1.1096011532
1.0176424479
1.1255595129
1.1088571401
1.0564193120
1.1069656435
1.0417344387
1.1066512011
1.1003514365
1.0777550413
1.1496709346
1.0945007257
1.1080391937
1.0889973151
1.1452049109
1.0665714405
1.1136605578
1.0612793059
1.0984284035
1.1408452204
1.1238669529
0.9669048477
1.0902913560
1.0642061322
1.1362002140
0.9953498046
1.1121726544
1.0629117633
1.1192072505
1.0739582044
1.0883476732
1.0983583441
1.0744704044
1.1415832641
1.1108301239
1.0671188002
1.0835122527
1.0803176249
1.0021800511
1.1442763925
1.0790258523
1.0562005492
1.0984284034
1.0188164283
1.0721183387
1.1019416285
1.0824748067
1.0938205915
1.0731672536
1.1336412597
1.1490244805
1.1272953687
1.1162031540
1.0885852045
1.0929462979
1.1032295654
1.0983132106
1.1496516405
1.1314188768
1.1086883868
1.0781534092
1.1449304086
1.0350602528
1.0768640919
1.0659150920
1.0580330018
1.0556874287
1.0927114546
1.1023158954
1.0777382968
1.1286785036
1.0684516122
1.0721637987
1.0577754758
1.1229277936
1.1390013176
1.1527850112
1.1239866022
0.9883530996
1.0854662670
1.0608792687
1.0617155949
1.1530926466
1.1557821559
1.1046411701
1.0844252401
1.1026364448
1.0376813176
1.1341052034
1.0435652502
1.0599455986
1.1597708309
1.1536265785
1.0896809153
1.0828405125
1.1379704014
1.0739347486
1.0676282383
1.0380460767
1.1458178577
1.1569834918
1.1511566678
1.0535520777
1.0302027629
1.0233933631
1.0107698526
1.0317246369
1.1436857229
1.1495899278
1.1314356274
1.1374842198
1.0415908768
1.1547311797
1.1596195644
0.9932605784
1.1490235705
1.1416736282
0.9669070052
1.1615004107
1.0675071760
1.1544210151
1.0066466483
1.0238236589
1.1611360356
0.9953510870
1.1581127772
1.1580519533
1.0135668403
1.1551272098
0.9959514588
0.9720123889
1.1503821499
1.1542609904
1.0346145908
1.1326596205
1.1347293062
1.1347262851
1.1326549360
1.1388277013
1.1392987289
1.1390598901
1.1369521304
1.1343008335
1.1372926927
1.1359481493
1.1343004752
1.1363867168
1.1342637706
1.1378060290
1.1370205128
1.1369487222
1.1388277451
1.1321787607
1.1333168182
1.1395842283
1.1383566302
1.1300047869
1.1390405682
1.1275336062
1.1399332908
1.1360728293
1.1226414768
1.1405759893
1.1357938521
1.1273859699
1.1301043468
1.1381035716
1.1210420815
1.1276116427
1.1370168465
1.1408927277
1.1321745592
1.1394442265
1.1215647906
1.1301793417
1.1186639732
1.1369884774
1.1156127917
1.1404937249
1.1241459200
1.1220733517
1.1174223031
1.1399361810
1.1275306888
1.1322374319
1.1395556105
1.1409494241
1.1381073002
1.1277628650
1.1306534610
1.1246715762
1.1365011390
1.1273818663
1.1390709410
1.1276080163
1.1248358993
1.1193974441
1.1321671672
1.1210356817
1.1337785498
1.1381703565
1.1249865874
1.1193410011
1.1357277858
1.1300985732
1.1245915739
1.1165386862
1.1190421804
1.1348431428
1.1302675123
1.1156324784
1.1264066812
1.1354572008
1.1186611790
1.1275174762
1.1306483743
1.1130385125
1.1150559763
1.1248352316
1.1365042200
1.1333528359
1.1194026748
1.1319855427
1.1218430880
1.1222245874
1.1297094691
1.1339596931
1.1140855727
1.1144605807
1.1216904955
1.1376523703
1.1295297948
1.1263979781
1.1287641756
1.1271830702
1.1249415302
1.1192862218
1.1222766981
1.1306962549
1.1164837182
1.1288517921
1.1139373002
1.1192861217
1.1348441859
1.1260463741
1.1354596902
1.1241660405
1.1289325833
1.1269456031
1.1206213251
1.1227693542
1.1165582680
1.1193391692
1.1268737558
1.1364815371
1.1302640484
1.1295345613
1.1333521783
1.1297024011
1.1152280288
1.1216845685
1.1150778705
1.1272042400
1.1129278936
1.1131865171
1.1272267821
1.1150406986
1.1215519529
1.1169452360
1.1140944205
1.1211873557
1.1130328789
1.1134523571
1.1255391720
1.1279544746
1.1193488875
1.1234187940
1.1206040006
1.1259691013
1.1259708690
1.1222620930
1.1100684327
1.1139633002
1.1287571359
1.1364846367
1.1255841622
1.1290108029
1.1260561233
1.1288491853
1.1260442585
1.1162553387
1.1188884211
1.1239825374
1.1139567894
1.1200414599
1.1271734173
1.1237818299
1.1119902209
1.1297520244
1.1193016273
1.1224218620
1.1150658444
1.1326429757
1.1150806485
1.1211754640
1.1120554378
1.1271939734
1.1219807870
1.1124586047
1.1205551867
1.1143655744
1.1171446453
1.1110733735
1.1130646927
1.1343437816
1.1137485890
1.1241269533
1.1133522635
1.1231336914
1.1129248375
1.1194727369
1.1120333133
1.1152432353
1.1088747041
1.1188793715
1.1227217406
1.1123111200
1.1234141956
1.1239706556
1.1193683901
1.1255719806
1.1097156868
1.1125033783
1.1259588914
1.1236882278
1.1139751647
1.1173970656
1.1100830787
1.1126974668
1.1149271807
1.1260495346
1.1205474794
1.1088887875
1.1183647252
1.1241253197
1.1116612323
1.1129214686
1.1195930011
1.1343456768
1.1301638772
1.1231204442
1.1143593867
1.1115445646
1.1133321530
1.1195510537
1.1103719061
1.1218134536
1.1163425935
1.1317224749
1.1124612090
1.1355236914
1.1128403304
1.1120728784
1.1173905083
1.1116237334
1.1124482129
1.1274496416
1.1120469032
1.1188888895
1.1156422969
1.1203887626
1.1132045703
1.1125688792
1.1101870432
1.1119135797
1.1173484739
1.1127839160
1.1313830489
1.1170617945
1.1173291615
1.1125062558
1.1093489372
1.1146557364
1.1098888458
1.1119698550
1.1183532891
1.1301611348
1.1195764704
1.1141685203
1.1388543628
1.1134897440
1.1176366283
1.1335562454
1.1114462199
1.1104527159
1.1118775418
1.1405818839
1.1165401709
1.1274480939
1.1101891499
1.1155337995
1.1124494290
1.1247991380
1.1313837781
1.1156325478
1.1158897627
1.1384434407
1.1124477154
1.1111047036
1.1399905805
1.1094839564
1.1188768335
1.1155581940
1.1127789113
1.1101769879
1.1391324138
1.1086678791
1.1111918118
1.1025281961
1.1098927648
1.1141573965
1.1245607355
1.1084870639
1.1109222953
1.1176402610
1.1166088331
1.1119744984
1.1048035476
1.1363548831
1.1153718006
1.1120350549
1.1393964339
1.1214433482
1.1042859317
1.1197616990
1.1247934296
1.1399890889
1.1165241755
1.1354690861
1.1165226258
1.1003710405
1.1391310356
1.1379186339
1.1012539652
1.1114477521
1.1118817883
1.1403239808
1.1108684344
1.1145254541
1.1369365385
1.1084794505
1.1131977604
1.1408919769
1.1185222825
1.1131002883
1.1026026506
1.1386719223
1.0984574953
1.1176370495
1.1213569044
1.1075361523
1.1029571927
1.1102512546
1.1109259575
1.1074852292
1.1064921520
1.0966365074
1.1409848675
1.1275720164
1.1174557467
1.1393946245
1.1111976990
1.1245606227
1.1025259428
1.1086771138
1.1153687329
1.1042538026
1.1126107683
1.1084861438
1.0995807661
1.1307274321
1.0989698251
1.1346174400
1.1104583842
1.1369345658
1.1379176760
1.1084273056
1.1011086615
1.0960120118
1.1152567669
1.1027753218
1.1193771481
1.1331430717
1.1012591757
1.1408902970
1.1114537095
1.1323364022
1.1357327215
1.1070686272
1.1130981556
1.1124714886
1.1149622634
1.1175512267
1.1003738018
1.1365763976
1.1391062991
1.1058231527
1.0976260006
1.1275720091
1.1090999711
1.1029597579
1.1407650315
1.1409829400
1.1102578846
1.1395145015
1.1074874427
1.0971013413
1.1331231665
1.1126088583
1.1110701745
1.1092671647
1.0893586812
1.1130728334
1.1365756843
1.1084382291
1.1058695464
1.1323356119
1.0960107765
1.1149600513
1.1048764721
1.1377003480
1.1011095797
1.1104669938
1.1381141109
1.0915939915
1.1099599839
1.1352230341
1.1065674064
1.1090782701
1.1024429140
1.1363281462
1.1076762926
1.0918425489
1.1389090829
1.1380153568
1.1109640265
1.0949088429
1.1091078996
1.1397800352
1.1381850316
1.1407636746
1.1075059433
1.0934696816
1.0906150583
1.1304429021
1.1376992149
1.1381129717
1.1371399481
1.1024481721
1.1048868332
1.1299363508
1.1078870434
1.1092159690
1.1099571010
1.0891526232
1.1092778479
1.1355827791
1.1367670890
1.1047584821
1.1269519084
1.1065108311
1.1076885761
1.0989230077
1.0918354655
1.1378177677
1.0934615209
1.0972945080
1.0957515007
1.1077584478
1.1382316777
1.0937763016
1.1060113462
1.1232542593
1.1096280182
1.1243118541
1.1144022718
1.1065947987
1.1367650515
1.1040655686
1.1340197784
1.1067247465
1.1208733423
1.1304428075
1.1040211635
1.1359528387
1.1337149177
1.1079048701
1.1274816253
1.1290264216
1.1117469400
1.1173609923
1.1038828583
1.1078923059
1.1203397433
1.1045576457
1.1355805362
1.1315853728
1.1299356660
1.1012818405
1.1041332328
1.1059867765
1.0972913888
1.1131254776
1.1054707975
1.0957410331
1.1114371389
1.1060274958
1.1057293338
1.1126001954
1.1092557051
1.1088687245
1.1043854962
1.1132440191
1.0977417305
1.1124547184
1.1075003197
1.1024373567
1.1110723747
1.1087081493
1.1101917022
1.1047700557
1.1025596151
1.1134280704
1.1320163225
1.1008377652
1.1012835833
1.1208722122
1.1040656881
1.1243107868
1.1293103743
1.1024856630
1.1065819098
1.1160511692
1.1340182247
1.1088886181
1.1178844849
1.1127576533
1.1265596849
1.1058205550
1.1041899663
1.1127161082
1.1337127269
1.1016048482
1.1007406209
1.1238082297
1.1041805467
1.1021208181
1.1095007095
1.1229520816
1.1107360737
1.1173586572
1.1150971658
1.1290242443
1.1126983613
1.1005641442
1.1031590849
1.1052104476
1.1081682258
1.1113054817
1.1087381173
1.1110976996
1.1064660682
1.1105112839
1.1058556505
1.1001680546
1.1128698182
1.1140920008
1.1151300271
1.1072009573
1.1012789127
1.1126147302
1.1109860766
1.1119676100
1.1036372666
1.1066903737
1.1097693242
1.1128194303
1.1073698555
1.1113856486
1.1092758322
1.1075036334
1.1041324260
1.1032961224
1.1129112820
1.1149374558
1.1144793764
1.1129932528
1.1100113049
1.0954162317
1.1051294305
1.1198384795
1.1293087813
1.1078667282
1.1055463335
1.1012723922
1.1019106758
1.0980908579
1.1024854954
1.1103994764
1.0955176313
1.0996192834
1.1025427203
1.1134255869
1.0962551189
1.1041864856
1.1229501915
1.1157238120
1.1077059252
1.1012389834
1.1013098988
1.1008471846
1.1017231424
1.1094974408
1.0951069913
1.0979428413
1.1039267503
1.1166129992
1.1051199584
1.1104780515
1.1081330946
1.1050310936
1.1047595889
1.1178957932
1.1131320127
1.0965053326
1.1144786010
1.1145079987
1.1166677620
1.1154864218
1.1029936181
1.1016590630
1.1116774435
1.1076873441
1.1154090912
1.1108030133
1.1066093849
1.1091426144
1.1098031207
1.1080690214
1.1031595150
1.1180643351
1.1118643104
1.1140729109
1.1141308932
1.1172700318
1.1128422449
1.1036919723
1.1135834957
1.1062598384
1.1169296229
1.1128962941
1.1304031295
1.1107829830
1.1022056700
1.1209310782
1.0980919833
1.1051267711
1.1304369478
1.1322238433
1.0910046550
1.1102564533
1.0990138608
1.0965214183
1.1201535564
1.1268981280
1.1334193184
1.1120796961
1.0987808199
1.1019135734
1.0890925894
1.0879765418
1.1021229895
1.1079260765
1.1079020030
1.1151931097
1.0988112132
1.1144506532
1.1268662227
1.0960457138
1.1284378040
1.1091141385
1.1013848588
1.1183051864
1.0996999163
1.1084975673
1.1291198717
1.1345251040
1.0890438436
1.1121020995
1.0963560212
1.0969443994
1.1230401656
1.1241969621
1.1319130042
1.1157224826
1.0975452489
1.1002208850
1.0914484594
1.0881555135
1.1008443563
1.1066780742
1.1092904014
1.1131682027
1.1075205389
1.1171249898
1.1298964037
1.0948337669
1.0818488079
1.1205356004
1.1035175721
1.1139456464
1.1060340630
1.1205817782
1.1124783937
1.1153352545
1.0518907785
1.0437194178
1.0523853894
1.1208280841
1.0369842606
1.0975608873
1.1056527620
1.1180908176
1.1044295335
1.0981257770
1.1166338083
1.1060512315
1.1102470941
1.0935050108
1.1170301153
1.0967405490
1.1073318361
1.1105764352
1.0785180964
1.1087055865
1.0723362628
1.1183113243
1.1044107987
1.1121864250
1.1080391860
1.1216971401
1.1147297166
1.1166955383
1.0592579534
1.0514891417
1.0356255258
1.1217549225
1.0434401050
1.1014398417
1.1070574191
1.1171003223
1.1029963782
1.0945006130
1.1155007286
1.1055456632
1.1131090607
1.1191562421
1.1058332458
1.1088661128
1.0849060343
1.1104100124
1.1077310864
1.1319645701
1.1191624716
1.1245321156
1.1105546520
1.1102570219
1.1134080497
1.1171474580
1.0905660155
1.1291209045
1.1238679537
1.1234423032
1.1291117608
1.1099344726
1.0910293571
1.1212966811
1.1081420861
1.1079023042
1.1109029193
1.1058571518
1.1124423362
1.0931939473
1.1267058407
1.1334230680
1.1140810621
1.1327803594
1.1212922432
1.1251303042
1.1234485660
1.1034141191
1.1055614454
1.1268695836
1.0973567247
1.1070763164
1.1085765988
1.1423237763
1.1384054925
1.1109027067
1.1186742051
1.1394953021
1.1201542734
1.1322283884
1.1391871008
1.0960440636
1.1022092460
1.1144504915
1.1155034229
1.1351090094
1.1091397405
1.1358835748
1.1215488559
1.1265603116
1.1245707042
1.1090411685
1.1088801479
1.1114120985
1.1204087921
1.0914652497
1.1304418921
1.1271010632
1.1254712723
1.1115559524
1.0903158956
1.1240498484
1.1098766846
1.1072171057
1.1072170323
1.1144969970
1.0914470474
1.1291427415
1.1334909716
1.1165894862
1.1294833391
1.1220438761
1.1212042159
1.1075199694
1.1067264459
1.1143074592
1.1235095864
1.0949430733
1.1058574024
1.1415801293
1.1358289145
1.1129070788
1.1157990616
1.1390905280
1.1171255607
1.1299031558
1.1419827751
1.0995277223
1.0998734411
1.1121024506
1.1178630565
1.0825437612
1.1156855029
1.1361995188
1.1452031513
1.1217755915
1.0926882703
1.0463750633
1.1151119314
1.0434406230
1.1154445508
1.1119216500
1.1074916416
1.1042524372
1.1496689901
1.0861989771
1.0437202887
1.0842348567
1.1199607544
1.0644813712
1.0861890078
1.1449290964
1.1190183050
1.0345068140
1.1228022231
1.1378938856
1.0818491743
1.0466856326
1.1029023387
1.1029022973
1.0935918304
1.1047508607
1.1110148074
1.1462149569
1.0868598778
1.1029233555
1.0939043944
1.0589638475
1.1056119803
1.1138251847
1.0375302970
1.0300671482
1.1005037967
1.0353609353
1.1248630696
1.0827573701
1.1182800007
1.1408442242
1.1422395566
1.1202340942
1.0503636866
1.1129467229
1.0356261403
1.1133095652
1.1060398437
1.1029233402
1.1496494838
1.0897357370
1.0514900045
1.0813568511
1.1206054983
1.0564190121
1.0837528912
1.1480073707
1.1172191255
1.0375311748
1.1269564068
1.1342294683
1.0765238994
1.0523856509
1.1014398508
1.0699985356
1.0896203910
1.1035201632
1.1091864640
1.1476031357
1.0785183125
1.0984628791
1.0592588105
1.0492787939
1.1032228583
1.1161611228
1.0534790104
1.0345059650
1.0972887566
1.1218259503
1.1078268329
1.0861986398
1.0861869202
1.1099346771
1.0939043398
1.1238681948
1.1098961616
1.1032243696
1.0966994660
1.1100038416
1.0336807075
1.0780623979
1.0728273652
1.1376199115
1.0857312293
1.1133526173
1.0257659330
1.0972909809
1.0987729532
1.1133531333
1.1131679193
1.1124427564
1.0399736237
1.1266958510
1.1291247532
1.1108549428
1.1066790142
1.1376237903
1.0766194826
1.0741170701
1.1319655685
1.1242047128
1.1105084526
1.0162487960
1.1077299090
1.0755682698
1.1171477551
1.1170380573
1.1084083314
1.1084703055
1.1326824741
1.1047415575
1.0023960616
1.1285342687
1.1391680514
1.1092907843
1.1257194194
1.1435365875
1.1005796816
1.0176951700
1.1257205195
1.1329874703
1.0825410861
1.1059357747
1.1188048858
1.0691903435
1.0842338976
1.1299024593
1.1072186816
1.0897356786
1.0837499718
1.1092472349
1.0984630415
1.1204090772
1.1084084776
1.1170271715
1.1005058059
1.1026780949
1.1116982170
1.0453376479
1.0834676359
1.0828404247
1.0795229262
1.0140524804
1.0935931741
1.0949488550
1.1104422672
1.1157451002
1.1109600370
1.0238229591
1.1342601240
1.1313178510
1.1394981609
1.0659496705
1.0704587055
1.1278364811
1.1103384899
1.0022855763
1.0734393811
1.1144974438
1.1435342517
1.1092471263
1.1108608213
1.1035373477
1.0066455549
1.1358855372
1.1414568377
1.0966586909
1.0002173923
1.1290142087
1.1391891471
1.0827555675
1.1094127723
1.1214889912
1.0703943903
1.0813567079
1.1215642268
1.0896199616