<VTKFile type="UnstructuredGrid" version="0.1">
	<UnstructuredGrid>
		<Piece NumberOfPoints="1862" NumberOfCells="3498">
			<CellData>
				<DataArray type="Int32" Name="type" NumberOfComponents="1" Format="ascii">
0
0
0
0
0
0
0
0
0
0
0
0
0
0
0
0
1
0
0
1
0
0
0
0
0
0
0
0
0
0
0
0
0
1
0
0
0
0
0
0
0
0
0
0
0
0
0
0
0
0
1
0
0
0
0
0
0
0
0
0
0
1
0
0
0
0
0
0
0
0
0
0
0
0
0
0
0
0
0
0
0
0
0
0
0
0
0
0
0
0
0
0
0
0
0
0
0
0
0
0
0
0
0
0
0
0
0
0
0
0
0
0
0
0
0
0
0
0
0
0
0
0
0
1
0
0
0
0
0
0
0
0
0
0
0
0
0
0
0
0
0
0
0
0
0
0
0
0
0
0
0
1
0
1
1
0
0
0
0
0
0
0
0
0
0
0
0
0
1
0
1
0
0
0
0
1
0
0
0
0
0
0
0
0
1
1
0
0
0
0
0
1
0
0
0
0
0
0
0
0
1
0
0
0
0
0
0
0
0
0
0
0
0
0
0
0
0
0
0
0
0
0
0
0
0
0
0
0
0
0
0
0
0
1
0
0
0
0
0
0
0
0
0
0
0
0
0
0
0
0
0
0
0
0
0
0
0
0
0
0
0
0
0
0
0
0
0
0
0
0
0
0
0
0
0
0
0
0
0
0
0
1
0
0
0
0
0
0
0
0
0
0
0
0
0
0
0
0
0
0
0
0
0
0
0
0
0
0
0
0
0
0
0
0
0
0
0
0
0
0
0
0
0
0
0
0
0
0
0
0
0
0
1
0
0
0
0
0
0
0
0
0
0
0
0
0
0
0
0
0
0
0
0
0
0
0
0
0
0
0
0
0
0
0
0
0
0
0
0
0
0
0
0
0
0
0
0
0
0
0
0
0
0
0
0
0
0
0
0
0
1
0
0
0
0
0
0
0
0
0
0
0
0
0
0
0
0
0
0
0
0
0
0
0
0
0
0
0
0
0
0
0
0
0
0
0
0
0
0
0
0
0
0
0
0
0
0
0
0
0
0
0
0
0
0
0
0
0
0
0
0
0
0
0
0
0
0
0
0
0
0
0
0
0
0
0
0
0
0
0
0
0
0
0
0
0
0
0
0
0
0
0
0
0
0
0
0
0
0
0
0
0
0
0
0
0
0
0
0
0
0
0
0
0
0
0
0
0
0
0
0
0
0
0
0
0
0
0
0
0
0
0
0
1
0
0
0
0
0
0
0
0
0
0
0
0
0
0
0
0
0
0
0
1
0
0
0
0
0
0
0
0
0
0
0
0
0
0
0
0
0
0
0
0
0
0
0
0
0
0
0
0
0
0
0
0
0
0
0
0
0
0
0
0
0
0
0
0
0
0
0
0
0
0
0
0
0
1
0
0
0
0
0
0
0
0
0
0
0
0
0
0
0
0
0
0
0
0
0
0
0
1
0
0
0
0
0
0
0
0
0
0
0
0
0
0
0
0
0
0
0
1
0
0
0
1
0
0
0
0
0
0
0
0
0
0
0
0
0
0
0
0
0
0
0
0
0
0
0
0
0
1
0
0
0
0
0
0
0
1
0
0
0
0
0
0
0
0
0
0
0
0
0
0
0
0
0
0
0
0
0
0
0
0
0
0
1
0
0
0
0
0
0
0
1
0
0
0
0
0
0
1
0
0
0
0
0
0
0
0
0
0
0
0
0
0
0
0
0
0
0
0
0
0
0
0
0
0
0
0
0
0
0
0
0
0
0
0
0
0
1
0
0
0
0
0
1
0
0
0
0
0
0
0
1
0
0
0
0
0
0
0
0
0
0
0
0
0
1
0
0
0
0
0
0
0
0
0
0
0
0
0
0
0
0
0
0
0
0
0
0
0
0
0
0
0
0
0
0
0
0
0
0
0
0
0
0
0
0
0
0
0
0
0
0
0
0
0
0
0
0
0
1
0
0
0
0
0
0
0
0
0
0
0
0
0
0
0
0
0
0
0
1
0
0
0
0
0
0
0
0
0
1
0
0
0
0
0
0
0
0
0
0
0
0
0
0
0
0
0
0
0
0
0
0
0
0
0
0
0
0
0
1
0
1
0
0
0
0
0
0
0
0
0
0
0
0
0
0
0
0
0
0
0
0
0
0
0
0
0
0
0
1
0
0
0
1
0
0
0
0
0
0
0
0
0
0
0
0
0
0
0
0
0
0
0
0
0
0
0
0
0
0
0
0
1
0
0
0
0
0
0
0
0
0
0
0
0
0
0
0
0
0
0
0
0
0
0
0
0
0
1
0
0
0
0
0
0
0
0
0
0
0
0
0
0
0
0
0
0
0
0
0
0
0
1
0
0
0
0
0
0
1
0
0
0
0
0
0
0
0
0
0
0
1
0
0
0
0
0
0
0
0
0
0
0
0
0
0
0
0
0
0
0
0
1
0
0
0
0
0
0
0
0
0
0
0
1
0
0
0
0
0
0
0
0
0
0
0
0
0
0
0
0
0
0
0
0
0
1
0
0
0
0
0
0
0
0
0
1
1
0
1
0
1
0
0
0
0
0
0
0
0
0
0
0
1
0
0
0
0
0
1
1
0
0
0
0
0
0
1
0
0
0
0
0
1
1
1
0
0
0
0
0
0
0
0
0
0
0
0
1
1
0
0
1
0
0
0
0
0
1
0
0
0
1
0
1
0
0
0
0
0
0
0
1
0
0
0
0
0
0
0
1
0
0
1
0
0
0
0
0
0
0
0
0
0
0
0
0
0
0
1
0
0
0
0
0
0
0
0
0
0
0
0
0
0
0
0
0
0
0
0
0
0
0
0
0
0
0
0
0
0
0
0
0
0
0
0
1
0
0
0
0
0
0
1
0
0
0
1
0
0
0
0
0
0
0
0
0
0
0
1
0
0
0
0
0
0
0
0
0
0
0
0
0
0
0
0
0
0
0
0
0
0
0
0
0
0
0
0
0
0
0
0
0
0
0
0
0
0
0
0
1
1
0
0
0
0
0
0
0
0
0
0
0
0
0
1
0
0
0
0
0
0
0
0
0
0
0
0
0
0
0
0
0
0
0
0
0
0
0
0
0
0
0
0
0
0
0
0
0
0
0
0
0
0
0
0
0
0
0
0
0
0
0
0
0
0
0
0
0
0
0
0
0
0
0
0
0
0
0
0
0
0
0
0
0
0
0
0
1
1
0
0
0
0
0
0
0
0
1
0
0
0
0
0
0
0
0
0
0
0
0
0
0
0
0
0
0
0
0
0
0
0
1
0
0
0
0
0
0
0
0
0
0
0
0
0
0
0
0
1
0
0
0
0
0
0
0
0
0
0
0
0
0
0
0
0
0
0
0
0
0
0
0
0
0
0
0
0
0
0
0
0
0
0
0
0
0
0
0
0
0
0
0
0
0
0
0
0
0
0
0
0
0
0
0
0
0
0
0
0
0
0
0
0
0
0
0
0
0
0
0
0
0
0
0
0
0
0
0
0
0
0
0
0
0
0
0
0
0
0
1
1
0
0
0
0
0
1
0
0
0
0
0
0
0
0
0
0
0
0
1
0
0
0
0
0
0
0
0
0
0
0
0
0
0
0
0
0
0
0
0
0
0
0
0
0
0
0
0
0
0
0
0
0
0
0
0
0
0
0
0
0
0
0
0
0
0
0
0
0
0
0
0
0
1
0
1
0
0
0
0
0
0
0
0
0
0
0
0
0
0
0
0
0
0
1
0
0
0
0
0
0
0
0
0
0
0
0
0
0
0
0
0
0
0
0
0
0
0
0
0
0
0
0
0
0
0
0
0
0
0
0
0
0
0
0
0
0
0
0
0
0
0
0
0
0
0
0
0
0
0
0
0
0
0
0
0
0
0
0
0
0
0
0
0
0
1
0
0
0
0
0
0
0
0
0
0
1
0
0
0
0
0
0
0
0
0
0
0
0
0
0
0
0
0
0
0
0
0
0
0
0
0
0
0
0
0
0
0
0
0
0
0
0
0
1
0
0
0
0
0
0
0
0
0
0
0
0
0
0
0
0
0
0
0
0
0
0
0
0
0
0
0
0
0
0
0
0
0
0
0
0
0
0
0
0
0
0
0
0
0
0
0
0
0
0
0
0
0
0
0
0
0
0
0
0
0
0
0
0
0
0
0
0
0
0
0
0
0
0
0
0
0
0
0
0
0
1
0
0
0
0
0
0
0
0
0
0
0
0
0
0
0
0
0
0
0
0
0
0
0
0
0
0
0
0
0
0
0
0
0
0
0
0
0
0
0
0
0
0
0
0
0
0
0
0
0
0
0
0
0
0
0
0
0
0
0
0
0
0
0
0
0
0
0
0
0
0
0
0
0
0
0
0
0
0
0
0
0
0
0
0
0
0
0
0
0
0
0
0
0
0
0
0
0
0
0
0
0
0
0
0
0
0
0
0
0
0
0
0
0
0
0
0
0
0
0
0
0
0
0
1
0
0
0
0
0
0
0
0
0
0
0
0
0
0
0
0
0
0
0
0
0
0
0
0
0
0
0
0
0
0
0
0
0
0
0
0
0
0
0
0
0
0
0
0
0
0
0
0
0
0
0
0
0
0
0
0
0
0
0
0
0
0
0
0
0
0
0
0
0
0
0
0
0
0
0
0
0
0
0
0
0
1
0
0
0
0
0
0
0
1
0
0
0
0
0
0
0
0
0
0
0
0
0
0
0
0
0
0
0
0
0
0
0
0
0
0
0
0
0
0
0
0
0
0
0
0
0
1
0
0
0
0
0
0
0
0
0
0
0
0
0
0
0
0
0
0
0
0
0
1
0
0
0
0
0
0
0
0
0
0
0
0
1
1
0
0
0
0
0
0
0
0
0
0
0
0
0
0
0
1
1
0
1
0
0
0
0
0
0
0
0
0
1
0
0
0
0
0
0
1
0
0
0
0
0
0
0
0
0
0
1
0
0
0
0
1
0
1
0
0
0
0
0
0
0
1
0
0
0
1
0
0
0
1
0
1
1
0
0
1
1
0
0
0
1
0
0
0
1
0
0
0
0
0
0
0
0
0
1
0
0
0
0
0
0
1
0
0
0
0
0
0
0
0
0
0
0
0
0
0
0
0
0
0
0
0
0
0
0
0
0
0
0
1
0
0
1
0
0
0
0
0
0
0
0
0
0
0
0
0
0
0
0
0
0
1
0
0
1
0
0
0
0
0
0
0
0
0
0
0
1
0
0
1
0
0
0
0
0
0
0
0
0
0
0
1
1
0
0
0
0
0
0
0
0
0
0
0
0
1
0
0
0
0
0
0
0
0
0
0
0
0
0
0
0
0
0
1
0
0
0
0
0
0
0
0
0
0
0
0
0
0
0
0
0
1
0
0
0
0
0
0
0
0
0
0
0
0
0
0
0
0
0
0
0
0
0
0
0
0
0
0
0
0
0
0
0
0
0
0
0
0
0
0
0
0
1
0
0
0
0
0
0
0
0
0
0
0
0
0
0
0
0
0
0
0
0
0
0
0
0
0
0
0
0
0
0
0
0
0
0
0
0
0
0
0
0
0
0
0
0
0
1
0
0
0
0
0
0
0
0
0
0
0
0
0
0
0
0
0
0
0
0
0
0
0
0
0
0
0
0
0
0
0
0
0
0
0
0
0
0
0
0
0
0
0
0
0
0
0
1
0
0
0
0
0
0
0
0
0
0
1
0
0
0
0
0
0
0
0
0
0
0
0
0
0
0
1
0
0
1
0
0
0
0
0
0
0
0
0
0
0
0
0
0
0
0
0
0
0
0
0
0
0
1
0
0
0
0
0
0
0
0
0
0
0
0
0
0
0
0
0
0
0
0
0
0
0
0
0
0
0
0
0
0
0
0
0
0
0
1
0
0
0
0
0
0
0
0
0
0
0
0
0
0
0
0
0
0
0
0
0
0
0
0
0
0
0
0
0
0
0
0
0
0
0
0
0
0
0
0
0
0
0
0
0
0
0
0
0
0
0
0
0
0
0
0
0
0
0
0
0
0
0
0
0
0
0
0
0
0
0
0
0
0
0
0
1
0
0
0
0
0
0
0
0
0
0
0
0
0
0
0
0
0
0
0
0
0
0
0
0
0
0
0
0
0
0
0
0
0
0
0
0
0
0
0
1
0
0
0
0
0
0
0
0
0
0
0
0
1
1
0
0
0
0
0
0
0
0
0
0
0
0
0
0
0
0
0
0
0
0
0
0
0
0
0
0
0
0
0
0
0
0
0
0
0
0
0
0
0
0
0
0
0
0
0
0
0
0
0
0
0
0
0
0
0
0
0
0
0
0
0
0
0
0
0
0
0
0
0
0
0
0
0
0
0
0
0
0
0
0
0
0
0
0
0
0
0
0
0
0
0
0
0
0
0
0
0
0
0
0
0
1
0
1
0
0
0
0
0
0
0
1
1
1
1
0
0
0
0
0
0
0
0
0
0
0
0
0
0
0
0
0
0
0
0
0
0
0
0
0
0
0
0
1
1
0
0
0
0
0
0
0
0
0
0
0
0
0
0
0
0
0
0
1
0
0
0
0
0
0
0
1
1
0
1
1
0
0
1
0
0
0
0
0
0
0
1
0
1
0
0
0
0
0
0
0
0
0
0
0
0
0
0
0
0
0
0
0
0
0
0
0
0
0
0
0
1
1
0
0
0
1
1
0
0
0
0
1
0
0
1
0
1
0
0
0
0
0
1
0
0
0
1
0
0
0
0
0
0
0
0
0
0
0
0
0
0
0
0
0
0
0
0
0
0
0
0
0
0
0
1
0
0
0
0
0
0
1
0
0
0
0
0
0
0
0
0
0
0
0
0
0
0
0
0
0
0
0
0
0
0
0
0
0
0
0
0
1
0
1
0
0
0
0
0
0
0
1
0
0
0
0
0
0
0
0
0
0
0
1
0
0
0
0
0
0
0
0
0
1
0
0
0
0
0
0
0
1
0
0
0
0
0
0
0
1
0
0
0
0
0
0
0
0
0
0
0
0
0
0
0
0
0
0
0
1
0
1
0
0
0
0
0
1
0
0
0
0
0
0
0
0
0
0
0
0
0
0
0
0
0
0
0
0
0
0
0
0
0
1
0
1
0
0
0
0
0
0
0
0
0
1
0
0
0
0
0
1
0
0
0
0
0
0
0
0
0
0
0
0
0
0
0
1
0
0
0
0
0
0
0
0
1
0
0
0
0
0
0
0
0
0
0
0
0
0
0
0
0
0
0
0
0
0
0
0
0
0
0
0
0
0
0
1
0
0
0
0
0
0
0
0
0
0
0
0
0
0
0
0
1
0
0
0
0
0
0
0
0
1
0
0
0
0
0
0
0
0
0
1
0
0
0
0
0
1
0
0
0
0
0
0
0
0
0
0
0
0
0
0
0
0
0
0
0
1
0
0
0
0
0
0
1
0
0
0
0
0
0
0
0
1
0
0
0
0
0
0
0
0
0
0
0
0
0
0
1
0
0
1
0
0
0
1
0
0
0
0
0
0
0
0
0
0
0
0
0
0
0
0
1
0
0
0
0
0
0
0
0
0
0
1
0
1
0
0
0
0
0
0
1
0
0
0
0
0
0
0
0
0
0
0
0
0
0
0
0
0
0
0
0
0
0
0
0
0
0
0
1
1
0
0
0
0
0
0
1
0
0
0
0
0
0
0
0
0
0
0
0
0
1
0
0
0
0
0
0
0
1
0
0
0
0
0
0
0
0
0
0
0
0
0
0
0
0
0
0
0
0
0
0
0
0
0
0
0
1
0
0
0
0
0
0
0
0
0
0
1
0
0
1
0
0
0
0
0
0
0
0
0
0
0
0
0
0
0
0
0
0
0
0
0
0
0
0
0
0
0
0
0
1
0
0
0
0
0
0
0
1
0
0
0
0
0
0
0
1
0
0
0
0
1
0
0
0
0
0
0
0
0
0
0
0
1
0
1
0
0
0
1
0
				</DataArray>
				<DataArray type="Float64" Name="h" NumberOfComponents="1" Format="ascii">
1.2195868220
1.2195799124
1.2222372756
1.2194656915
1.2226547274
1.2222727460
1.2207328780
1.2184772687
1.2207647404
1.2166771640
1.2189057190
1.2213279802
1.2176385957
1.2178290035
1.2185504236
1.2155933252
1.2201200122
1.2165460653
1.2190813399
1.2181614537
1.2234718119
1.2175750428
1.2206182373
1.2242213650
1.2192540919
1.2154161383
1.2181195671
1.2260477981
1.2226419749
1.2170978046
1.2174364591
1.2211898514
1.2169175053
1.2225174288
1.2286624087
1.2246756963
1.2259485744
1.2203267159
1.2251516490
1.2243701214
1.2230768815
1.2274267978
1.2189028649
1.2226244017
1.2250288289
1.2249679024
1.2210143197
1.2303552246
1.2431729370
1.2414773261
1.2249843484
1.2249081957
1.2232477723
1.2335299878
1.2271674528
1.2180894119
1.2256986183
1.2329900578
1.2341256120
1.2330111010
1.2368722395
1.2357015263
1.2421438940
1.2254933824
1.2230272780
1.2288145065
1.2396641355
1.2403670498
1.2356442673
1.2343943200
1.2341808969
1.2280188412
1.2194726768
1.2350990856
1.2345702763
1.2248276003
1.2330384582
1.2368538973
1.2314747099
1.2256998552
1.2393094171
1.2305674471
1.2475378286
1.2384401071
1.2228789925
1.2279160055
1.2405156522
1.2363410383
1.2376946017
1.2464362541
1.2411447262
1.2258668151
1.2380169526
1.2451083223
1.2308472479
1.2288359676
1.2341575742
1.2237559185
1.2262942457
1.2404295318
1.2466793720
1.2395718039
1.2334928554
1.2315895863
1.2151171406
1.2380194916
1.2307321898
1.2444083244
1.2366853320
1.2316042814
1.2438926998
1.2453952285
1.2397479072
1.2415477459
1.2357025252
1.2454350229
1.2341229676
1.2161409074
1.2441977323
1.2377559325
1.2151697178
1.2348018897
1.2273097859
1.2143454162
1.2401896741
1.2447433703
1.2362427224
1.2143017305
1.2446768267
1.2457911186
1.2436095035
1.2317494933
1.2382613434
1.2458280704
1.2156269777
1.2433896659
1.2143236224
1.2462922773
1.2419238745
1.2151087896
1.2144927386
1.2147145028
1.2444573261
1.2160553817
1.2285310723
1.2424956659
1.2144538783
1.2483442477
1.2146194994
1.2490518408
1.2136437253
1.2465994207
1.2469241696
1.2487753947
1.2407705131
1.2469127204
1.2484534075
1.2144290328
1.2487601351
1.2136191080
1.2150023885
1.2480209109
1.2136288022
1.2136621048
1.2145048045
1.2472838524
1.2170767852
1.2144020603
1.2136334771
1.2472745877
1.2479812835
1.2135223608
1.2487032188
1.2144315007
1.2168618280
1.2499128302
1.2158290062
1.2490786900
1.2497594663
1.2138006837
1.2467488883
1.2181208692
1.2135323970
1.2279176594
1.2131201247
1.2135350589
1.2183050494
1.2494220613
1.2136323383
1.2140242577
1.2196356943
1.2496230922
1.2135138452
1.2198060100
1.2498851304
1.2486093848
1.2135688966
1.2215363967
1.2215333405
1.2497606737
1.2138810595
1.2302354516
1.2137322862
1.2495464167
1.2239610275
1.2132311355
1.2137686472
1.2132126021
1.2236627670
1.2148220638
1.2180352497
1.2136709281
1.2135474568
1.2139232048
1.2134747352
1.2197835803
1.2141989900
1.2130679854
1.2166806434
1.2134204921
1.2263284212
1.2461163167
1.2156237690
1.2427849997
1.2311092566
1.2498641803
1.2483597945
1.2380378190
1.2269494440
1.2473677055
1.2496090549
1.2445959879
1.2348449359
1.2499088274
1.2496016146
1.2405794221
1.2177136962
1.2125470725
1.2140012562
1.2130778283
1.2157228436
1.2123511436
1.2128321878
1.2143455214
1.2128706603
1.2133858275
1.2133610435
1.2162280507
1.2124493770
1.2124920921
1.2127355880
1.2144694567
1.2130416971
1.2197242638
1.2175393208
1.2136105293
1.2137664436
1.2130918817
1.2139257686
1.2442513727
1.2136267847
1.2303991915
1.2380458919
1.2433382473
1.2334348537
1.2495463536
1.2503006318
1.2249825105
1.2499664481
1.2469045225
1.2491018202
1.2151437113
1.2471888849
1.2397798949
1.2422607510
1.2256728046
1.2345362098
1.2409311455
1.2453180133
1.2294570442
1.2482267123
1.2502204585
1.2498678724
1.2501551161
1.2481560828
1.2458725941
1.2368677797
1.2108212068
1.2128245704
1.2121552697
1.2119106474
1.2152865926
1.2111502371
1.2119095286
1.2107502946
1.2128714554
1.2123276363
1.2109870828
1.2116372599
1.2136126010
1.2130068951
1.2118887561
1.2138118505
1.2148485180
1.2174547934
1.2107177915
1.2116601477
1.2120311137
1.2123137302
1.2295375649
1.2399777066
1.2380821562
1.2503601363
1.2233389014
1.2499632705
1.2448788528
1.2110156260
1.2480072694
1.2509209010
1.2128775926
1.2439281808
1.2329261671
1.2477473430
1.2501985282
1.2341751041
1.2367596588
1.2412977792
1.2503977200
1.2426730481
1.2466387178
1.2490337950
1.2508796812
1.2507182769
1.2242041783
1.2460614308
1.2284411857
1.2490331115
1.2099311568
1.2538079443
1.2078365248
1.2096236418
1.2097310476
1.2120125731
1.2123999959
1.2095162969
1.2085771318
1.2105060613
1.2111649039
1.2539715720
1.2315763254
1.2119282450
1.2480381582
1.2102037891
1.2113267369
1.2552648940
1.2081378662
1.2376960088
1.2083386083
1.2097418437
1.2518738923
1.2520309742
1.2550813455
1.2130080159
1.2108593751
1.2148530993
1.2090567071
1.2190490163
1.2281846178
1.2414389179
1.2120813126
1.2460894310
1.2545335560
1.2104653114
1.2517186844
1.2455410069
1.2445698230
1.2510096433
1.2033049405
1.2509360233
1.2286525615
1.2215798531
1.2488866148
1.2509483095
1.2078294829
1.2486549636
1.2100401740
1.2323423706
1.2402032433
1.2381402498
1.1952891537
1.2514062028
1.2227649268
1.2431488308
1.2104547033
1.2517635337
1.2468643115
1.2010807954
1.1978171487
1.1966731218
1.1996843490
1.2338044809
1.2499368052
1.1968057573
1.2474368202
1.2042967492
1.2511089371
1.2499965415
1.2273023185
1.2366307286
1.1954756939
1.2416958221
1.2254992033
1.2492586893
1.2323022696
1.2074390526
1.2542864430
1.2520316038
1.2066047938
1.2503173351
1.2314662634
1.2201678665
1.2127817108
1.2086508241
1.2532330154
1.2555475372
1.2443283545
1.2530271691
1.2108786657
1.2532736849
1.2092836884
1.2369360288
1.2564657794
1.2491212391
1.2553068899
1.2423030593
1.2451098732
1.2573153598
1.2508851765
1.2530599176
1.2225685304
1.2336239062
1.2486357268
1.2080406219
1.2543936772
1.2309883562
1.2069131121
1.2365943403
1.2403970315
1.2470967550
1.2545993478
1.2503515822
1.2526777154
1.2120814359
1.2255308297
1.2075234978
1.2127826947
1.2580300465
1.2567191346
1.2434760551
1.2581259933
1.2099861078
1.2122195647
1.2044994608
1.2517251322
1.2067220690
1.2462725567
1.2408608528
1.2317963675
1.2034725485
1.2063533598
1.2519663489
1.2031411336
1.2498404568
1.2041623597
1.2200134807
1.2404765506
1.2600703430
1.1947832825
1.2093609862
1.2021835371
1.2004824339
1.2100241720
1.2054347441
1.2519894184
1.2600302246
1.2596204638
1.2509342629
1.1990628154
1.2436893017
1.1952095221
1.2368542833
1.2262380690
1.2612462543
1.2082348343
1.2010818417
1.1957849771
1.2036659900
1.2615224941
1.2483029130
1.1972545988
1.2542729968
1.2573368866
1.1945206371
1.1966744278
1.1996851498
1.2031940027
1.2365403179
1.2107884216
1.2151092274
1.2429474220
1.1990617170
1.2063700446
1.2500186024
1.2031433648
1.2246106331
1.2093601137
1.2516907775
1.2279075656
1.2080791032
1.2009067692
1.2063720198
1.2389003080
1.2352580934
1.2545338541
1.2027588950
1.2559717977
1.1930509297
1.2448812160
1.2168806949
1.2035413650
1.2527655907
1.2045010229
1.2472805140
1.2049391468
1.2063533889
1.2037920806
1.2082337931
1.2036680311
1.2107879963
1.2168811830
1.2100263264
1.2000447012
1.1947366758
1.2096038642
1.1961047225
1.2016922170
1.1974544989
1.2041643725
1.1975310999
1.1940417206
1.2579467832
1.1953280506
1.2038843490
1.2143866662
1.2069434930
1.2207397390
1.2072201048
1.1933341144
1.2559031458
1.2570708817
1.2014507375
1.1938500239
1.2567180384
1.2054356018
1.2085962299
1.2508861986
1.2031961661
1.2408605452
1.2474863353
1.2526800989
1.2006972385
1.2418637470
1.2554632232
1.2463095025
1.2314682785
1.2059061581
1.2190453636
1.2320819771
1.2500185978
1.1990202339
1.1984267692
1.2470962837
1.2542728534
1.1887055276
1.2386196710
1.2017752459
1.2530613918
1.2492586904
1.2365952142
1.1920156501
1.2530293088
1.2053067896
1.1948644992
1.2101026579
1.1964109650
1.2255336734
1.2018954256
1.2076471223
1.2610113149
1.1961096065
1.2096563814
1.1977428126
1.2600691234
1.1995446287
1.2443274487
1.1986218548
1.2029867936
1.2599020990
1.2520326080
1.1749612919
1.2014562718
1.2032995297
1.2586347775
1.1866857893
1.2320821762
1.2004797241
1.2481542037
1.2049397555
1.2006990008
1.2035433623
1.2027603881
1.2573577725
1.2271791781
1.2045471191
1.2080786871
1.1976852435
1.1815315707
1.2620530878
1.2069429725
1.2005327187
1.2029871190
1.1899646049
1.2026508085
1.2072221526
1.2009084509
1.2014526205
1.2038855296
1.2586486787
1.2630646236
1.2552110889
1.2433437595
1.2096039082
1.2036718392
1.2045067761
1.1996987199
1.2605111388
1.2568743701
1.2143869450
1.2001334196
1.2607077816
1.1804475293
1.1972979592
1.2050190541
1.2007035781
1.1726159189
1.1976237176
1.2034866040
1.2016938355
1.2561677770
1.1982480885
1.2068888609
1.2020432110
1.2520656722
1.2605929099
1.2636513183
1.2530691458
1.1709701478
1.1969659815
1.2034448849
1.1994131197
1.2630473536
1.2635640008
1.2037926555
1.2035625791
1.2028124183
1.1962924129
1.2590460654
1.1955717712
1.2003545817
1.2659374884
1.2648678044
1.1958745283
1.1969390335
1.2608922191
1.1984757820
1.2012257302
1.1894776634
1.2631072450
1.2653646732
1.2644253650
1.1967805731
1.1944089854
1.1823108312
1.1868934808
1.1938234474
1.2626563903
1.2643464307
1.2577195616
1.2604763966
1.1696657111
1.2656071746
1.2665589685
1.1782318814
1.2630650958
1.2611816511
1.1749623005
1.2670779090
1.1953289859
1.2646330394
1.1923629913
1.1936660050
1.2670005772
1.1866867212
1.2660992835
1.2648742730
1.1938511578
1.2638217649
1.1907730124
1.1877874287
1.2628549340
1.2628103174
1.1990262172
1.2204917064
1.2209047469
1.2208986052
1.2204815462
1.2207197527
1.2213284817
1.2189057812
1.2192924743
1.2225175537
1.2222756970
1.2226507704
1.2225118298
1.2207603829
1.2185530244
1.2207350793
1.2173957311
1.2192922571
1.2207186984
1.2180357958
1.2165445904
1.2194673588
1.2222355835
1.2190924498
1.2170960732
1.2162426238
1.2212810759
1.2184755687
1.2154139375
1.2192518835
1.2166795781
1.2176291143
1.2176354091
1.2235259226
1.2158823649
1.2192950240
1.2173973601
1.2174339502
1.2180344539
1.2225158201
1.2169212005
1.2212050616
1.2168993420
1.2243714708
1.2238811184
1.2201226740
1.2155956112
1.2189206213
1.2251729924
1.2212812366
1.2162436936
1.2230856458
1.2178311106
1.2181657493
1.2235254993
1.2205987748
1.2304380023
1.2175672404
1.2259327796
1.2176243858
1.2234720938
1.2192821742
1.2188166612
1.2277381524
1.2303535850
1.2158832310
1.2250320326
1.2249824723
1.2210370748
1.2260248462
1.2242191182
1.2226284954
1.2257135226
1.2226248948
1.2181085535
1.2270484624
1.2164542145
1.2238559412
1.2281786435
1.2287255308
1.2168942490
1.2232651106
1.2304397353
1.2428278957
1.2407768466
1.2188008540
1.2259331600
1.2269217364
1.2277266574
1.2246708065
1.2230534644
1.2203018499
1.2294951508
1.2286638672
1.2421370694
1.2403553132
1.2284651526
1.2259496551
1.2255005117
1.2281759856
1.2320825798
1.2325944435
1.2226003247
1.2350924002
1.2324481373
1.2280200924
1.2194893456
1.2342741282
1.2211028317
1.2222088974
1.2270485394
1.2370596084
1.2287273663
1.2274229976
1.2330359343
1.2341781502
1.2355921281
1.2345654238
1.2225991916
1.2205033767
1.2356421940
1.2275170231
1.2164566355
1.2343924663
1.2269209836
1.2294961891
1.2280575467
1.2284571344
1.2389043923
1.2305645320
1.2411115660
1.2431813393
1.2248983749
1.2407874678
1.2249474697
1.2305745963
1.2384282786
1.2301563639
1.2428395491
1.2414914467
1.2368736176
1.2357027728
1.2204780851
1.2381736925
1.2355986602
1.2341291164
1.2321201131
1.2324502430
1.2228919544
1.2195536831
1.2320851599
1.2275190546
1.2298024833
1.2271648393
1.2355396734
1.2342757749
1.2370612463
1.2180771816
1.2312459700
1.2349146036
1.2210863158
1.2335302636
1.2325973348
1.2330138578
1.2258811172
1.2329923260
1.2221812165
1.2380150651
1.2389133948
1.2315875186
1.2263118168
1.2301537211
1.2211586211
1.2305652020
1.2395710901
1.2394041405
1.2393799060
1.2369748994
1.2288031378
1.2466800179
1.2396795434
1.2300751233
1.2237790710
1.2383124318
1.2288477355
1.2308276585
1.2411292659
1.2404291621
1.2380061552
1.2280442139
1.2477523714
1.2312404558
1.2366815050
1.2453878042
1.2381753928
1.2349190548
1.2397440557
1.2298023343
1.2248190054
1.2435529526
1.2321228449
1.2368569265
1.2195377841
1.2413296091
1.2228817929
1.2438765230
1.2316125698
1.2355419764
1.2393820214
1.2477472111
1.2329385649
1.2383131082
1.2279056358
1.2347994103
1.2371640811
1.2300769603
1.2157769842
1.2308267325
1.2369813117
1.2228648125
1.2256819921
1.2405159139
1.2475332042
1.2393098412
1.2341242592
1.2314766246
1.2394235440
1.2151656286
1.2363496268
1.2211443409
1.2413296739
1.2317545265
1.2421717684
1.2147532632
1.2447412377
1.2390957129
1.2419003907
1.2376992391
1.2308397267
1.2451201723
1.2452570820
1.2464386574
1.2411455172
1.2438081366
1.2329136321
1.2401815835
1.2362367125
1.2435738534
1.2457941249
1.2334923115
1.2461205692
1.2417990281
1.2329376180
1.2157808824
1.2371699290
1.2425071233
1.2156244599
1.2433904882
1.2382539632
1.2151210838
1.2341614384
1.2285370620
1.2402420586
1.2147120089
1.2396980187
1.2147577592
1.2452539892
1.2415514470
1.2444123734
1.2146408488
1.2329151004
1.2419028006
1.2357073863
1.2146165421
1.2421939675
1.2444598387
1.2139434089
1.2454309586
1.2391001153
1.2424972188
1.2438092259
1.2307294944
1.2151918720
1.2251308727
1.2398120385
1.2472847110
1.2461181237
1.2425127371
1.2138721460
1.2454964147
1.2457888802
1.2416410489
1.2377637253
1.2418251183
1.2466015506
1.2161433363
1.2427123472
1.2441976496
1.2163441104
1.2136383372
1.2469274720
1.2407708205
1.2146475075
1.2139457815
1.2143994867
1.2145013362
1.2397073037
1.2483038943
1.2151942804
1.2139555509
1.2488286892
1.2380410196
1.2402658385
1.2143476846
1.2446743604
1.2150025710
1.2147315570
1.2273061174
1.2436080163
1.2158747801
1.2136230654
1.2437020140
1.2480254129
1.2143042986
1.2487633635
1.2416400853
1.2143323635
1.2458256366
1.2474534039
1.2368884052
1.2457868951
1.2461971958
1.2462885960
1.2487056180
1.2165776493
1.2144459251
1.2419231813
1.2163464112
1.2398355252
1.2138761452
1.2472819240
1.2251262449
1.2427109491
1.2472788784
1.2440260468
1.2454936460
1.2479835556
1.2144286607
1.2490486638
1.2135303843
1.2351208562
1.2147352732
1.2139580396
1.2469958961
1.2479808188
1.2490524794
1.2160515360
1.2483398470
1.2144570774
1.2137984678
1.2488250457
1.2158772708
1.2380548355
1.2137383851
1.2144956809
1.2467537604
1.2437000079
1.2158335841
1.2430166465
1.2151099857
1.2483000811
1.2138403597
1.2136302550
1.2469077131
1.2484506702
1.2144479640
1.2338040124
1.2474495729
1.2153004739
1.2165809021
1.2369022541
1.2131180410
1.2461927991
1.2487731223
1.2144315213
1.2440243206
1.2183141212
1.2315917046
1.2498867074
1.2170686273
1.2138426902
1.2469908060
1.2486150297
1.2137401844
1.2490497838
1.2430154147
1.2479884712
1.2134910424
1.2479772745
1.2351274118
1.2136723780
1.2496248595
1.2449596850
1.2136641520
1.2472788180
1.2198131484
1.2492340316
1.2136211729
1.2302354818
1.2498085911
1.2135244888
1.2137302667
1.2168544656
1.2495481883
1.2338102213
1.2136354730
1.2138788305
1.2153029419
1.2215379834
1.2497263395
1.2497576757
1.2141635313
1.2134930802
1.2136747620
1.2136688669
1.2492300411
1.2479833422
1.2133898243
1.2484154781
1.2181139051
1.2449578607
1.2499111616
1.2315920388
1.2139604536
1.2138020831
1.2490738697
1.2135456385
1.2236656095
1.2196315113
1.2496109970
1.2498072348
1.2140265769
1.2497251102
1.2493923733
1.2497730757
1.2279171352
1.2135369011
1.2494200727
1.2263298703
1.2133594967
1.2133836800
1.2135835376
1.2128681566
1.2215348410
1.2138043787
1.2220772417
1.2136994616
1.2143458551
1.2130785054
1.2141653902
1.2177123245
1.2135158325
1.2137820884
1.2484093781
1.2135714268
1.2137286725
1.2130887520
1.2128771312
1.2197226793
1.2137654841
1.2130404376
1.2162276898
1.2139629334
1.2139986324
1.2133918039
1.2495350962
1.2223692431
1.2239610582
1.2493903730
1.2458535897
1.2151442836
1.2497721723
1.2422343072
1.2294597329
1.2498706607
1.2482261996
1.2491031381
1.2368568984
1.2249849567
1.2471796206
1.2497598561
1.2442253751
1.2334326209
1.2499668324
1.2490100006
1.2495512608
1.2397598375
1.2180350866
1.2119088264
1.2123416504
1.2134223915
1.2123252204
1.2152841473
1.2130803351
1.2220787015
1.2135861140
1.2136382910
1.2200627593
1.2119090999
1.2128238692
1.2137014535
1.2148214186
1.2132160264
1.2137715446
1.2132327178
1.2166794613
1.2118873820
1.2123137570
1.2137845096
1.2120289509
1.2138088453
1.2130694086
1.2197840441
1.2174531750
1.2120253225
1.2135170887
1.2142005719
1.2128789819
1.2134791485
1.2137310906
1.2446190401
1.2128747782
1.2204266779
1.2284462142
1.2367563829
1.2426528257
1.2348503530
1.2490056604
1.2495968219
1.2503996868
1.2269490868
1.2499083612
1.2497621244
1.2466183318
1.2490280680
1.2156220939
1.2495327171
1.2473725602
1.2406004881
1.2428113459
1.2233414492
1.2329295127
1.2399652231
1.2448556413
1.2311093474
1.2483569780
1.2490975256
1.2503599387
1.2223714665
1.2498619213
1.2502011959
1.2479937982
1.2497536922
1.2461309935
1.2380501579
1.2099295488
1.2113321438
1.2128331505
1.2136401735
1.2120128943
1.2125492718
1.2157251826
1.2177421533
1.2105067448
1.2200642320
1.2123523558
1.2097279354
1.2123979454
1.2130796027
1.2123420619
1.2102032799
1.2113280050
1.2135192608
1.2130465564
1.2124514294
1.2144718028
1.2148514250
1.2108589683
1.2175410309
1.2120251474
1.2097393293
1.2108564871
1.2127376659
1.2124924028
1.2273051121
1.2409471308
1.2366329827
1.2502206032
1.2256713257
1.2499293547
1.2453422476
1.2100368658
1.2481663358
1.2497535950
1.2505697398
1.2511089335
1.2183232887
1.2136287229
1.2431388021
1.2345369265
1.2474219591
1.2501509630
1.2323468166
1.2380535227
1.2401997663
1.2502984806
1.2204286879
1.2506279215
1.2433613572
1.2469234123
1.2491037048
1.2510091371
1.2509472099
1.2215790232
1.2455266681
1.2303967878
1.2488746138
1.2497588881
1.2542858306
1.2369349865
1.2153998346
1.2503187871
1.2108228547
1.2113310701
1.2542171047
1.2550757720
1.2066020689
1.2340486949
1.2092814713
1.2107528137
1.2497650138
1.2532335083
1.2550768590
1.2121554218
1.2128739228
1.2177448127
1.2086514880
1.2074375477
1.2111498751
1.2254975787
1.2219453090
1.2451107020
1.2108796275
1.2435230255
1.2534233069
1.2099583440
1.2537756157
1.2335679332
1.2122169925
1.2487033208
1.2109878551
1.2116364205
1.2538002117
1.2556341074
1.2069108169
1.2392064833
1.2075210918
1.2107199948
1.2514911723
1.2521925540
1.2545331225
1.2130482167
1.2116630625
1.2148503044
1.2092796414
1.2080401554
1.2108575342
1.2213351172
1.2263230768
1.2427460675
1.2122614822
1.2470140701
1.2544744960
1.2099877076
1.1954485145
1.2519876482
1.2163994479
1.2460799758
1.2062628892
1.2515136276
1.2436874108
1.2508777253
1.2021826781
1.2002992710
1.1976271662
1.2509291834
1.1952083634
1.1977298470
1.2262367169
1.2506311359
1.2242033324
1.1980867207
1.2490448008
1.2073860600
1.2507190219
1.2067193404
1.2482965091
1.2110184447
1.2341724644
1.2413062948
1.1948458294
1.2365421757
1.1945195636
1.2517230856
1.2200096096
1.2439433605
1.2096557711
1.2519641839
1.2462678180
1.2505700632
1.2042233268
1.2023586913
1.1962752985
1.2516249575
1.1954033014
1.1989018702
1.2317970563
1.2499686304
1.2183263490
1.1961086381
1.2477643122
1.2034717658
1.2509197077
1.2498341368
1.2295344600
1.2380838163
1.1947822595
1.2404773957
1.2277300809
1.2560574265
1.2496422718
1.2525858125
1.2279069227
1.2340500697
1.2388995724
1.2457282268
1.2085785619
1.2539679999
1.2521628835
1.2520162403
1.2539675123
1.2252307594
1.2078387881
1.2507145305
1.2335442113
1.2219465391
1.2385950396
1.2148678456
1.2364377558
1.2095155871
1.2531980768
1.2550773076
1.2452780651
1.2559043654
1.2507148263
1.2527666432
1.2526849852
1.2111643929
1.2216869504
1.2534221235
1.2096261484
1.2190505380
1.2201672142
1.2579475576
1.2570716507
1.2385950741
1.2472805235
1.2569896043
1.2497640620
1.2550751798
1.2578875392
1.2099567676
1.2154047703
1.2435232548
1.2460802255
1.2555471448
1.2315788100
1.2572083262
1.2510497371
1.2532752371
1.2527967258
1.2234360797
1.2281856956
1.2350492100
1.2492970265
1.2090571973
1.2542182415
1.2541144533
1.2527419426
1.2304774774
1.2081398426
1.2520300276
1.2382776716
1.2158283721
1.2158275120
1.2414232996
1.2092781493
1.2539716620
1.2552651090
1.2477414073
1.2547211509
1.2509260048
1.2522785474
1.2122624533
1.2279598184
1.2423025713
1.2518728785
1.2083411726
1.2148693832
1.2573584331
1.2564563255
1.2414398510
1.2445265941
1.2564998130
1.2470132790
1.2544739406
1.2585668612
1.2104638163
1.2119311426
1.2392067677
1.2480371344
1.2058468934
1.2514074419
1.2586353874
1.2600700350
1.2516284197
1.2078319635
1.2004833874
1.2468742580
1.1954044659
1.2418635291
1.2421597865
1.2338023212
1.2042974947
1.2610122964
1.2081624756
1.2003002425
1.2074353139
1.2517639365
1.1947198889
1.2044557598
1.2607086306
1.2500050537
1.1972920879
1.2516920646
1.2587137004
1.1954497607
1.1978183255
1.2018552571
1.2018561391
1.2047728874
1.2227663510
1.2416982290
1.2594800084
1.1954768113
1.2012446624
1.2098219060
1.2033056137
1.2190430520
1.2390318879
1.1987056090
1.1961201310
1.2091969370
1.1989272516
1.2530458049
1.2066615296
1.2517189478
1.2599028514
1.2593231825
1.2509413184
1.2002360770
1.2445765723
1.1962764910
1.2378630409
1.2286515855
1.2012454165
1.2605122887
1.2089143084
1.2023595756
1.2072659170
1.2515159943
1.1948633507
1.2050635693
1.2610748446
1.2486653915
1.1987067008
1.2545785188
1.2573838525
1.1952904332
1.1976284403
1.1989027381
1.1957945602
1.2042584289
1.2164035426
1.2381391494
1.2596302039
1.1948468449
1.2111275336
1.2042240644
1.1988954263
1.2134809761
1.2438978581
1.2017656628
1.1972909277
1.2063292452
1.2505419736
1.2058861147
1.2081614343
1.2044576568
1.2252312064
1.2098211734
1.2521622454
1.2225690632
1.2134848115
1.2003283403
1.2293608531
1.1945414713
1.2074132892
1.1974075793
1.2566613920
1.1997337005
1.2401678163
1.1969006727
1.2063317892
1.1978547094
1.2401686300
1.2427458223
1.2364383213
1.1944326296
1.2531981332
1.2538020218
1.2246102962
1.2213373578
1.2566605827
1.1949496490
1.2012965820
1.2560562303
1.2521935713
1.2188346290
1.1952113073
1.2277281045
1.2059363180
1.2457284412
1.2460895007
1.2175755026
1.2151250393
1.2553075077
1.2124898822
1.1902327391
1.2538095314
1.2581724100
1.2263239537
1.2531094788
1.2585119151
1.2042518767
1.1946417832
1.2531080512
1.2558205519
1.2058483372
1.2059546481
1.2480929959
1.2036829331
1.2074351706
1.2545318286
1.2035929702
1.2089130060
1.2050653146
1.2194846561
1.2111278830
1.2492968150
1.2175761013
1.2448810190
1.2091998627
1.2002757917
1.2336247177
1.1948423656
1.2090717778
1.1969382473
1.2003058220
1.1951754527
1.2047751344
1.1982276509
1.2323013289
1.2434766422
1.2309888790
1.1936649609
1.2550815652
1.2559727064
1.2569889083
1.1959441017
1.2024944434
1.2543927091
1.2135088821
1.1932158955
1.2060519693
1.2414237568
1.2585128303
1.2194842893
1.2195958113
1.2088172813
1.1923618775
1.2572072033
1.2581251724
1.2013417117
1.1920881444
1.2545980671
1.2578864343
1.2066623433
1.2080628671
1.2503510680
1.2048314615
1.2072652122
1.2510532369
1.2042604856