<VTKFile type="UnstructuredGrid" version="0.1">
	<UnstructuredGrid>
		<Piece NumberOfPoints="1862" NumberOfCells="3498">
			<CellData>
				<DataArray type="Int32" Name="type" NumberOfComponents="1" Format="ascii">
0
0
0
0
0
0
0
0
0
0
0
0
0
0
0
0
1
0
0
1
0
0
0
0
0
0
0
0
0
0
0
0
0
1
0
0
0
0
0
0
0
0
0
0
0
0
0
0
0
0
1
0
0
0
0
0
0
0
0
0
0
1
0
0
0
0
0
0
0
0
0
0
0
0
0
0
0
0
0
0
0
0
0
0
0
0
0
0
0
0
0
0
0
0
0
0
0
0
0
0
0
0
0
0
0
0
0
0
0
0
0
0
0
0
0
0
0
0
0
0
0
0
0
1
0
0
0
0
0
0
0
0
0
0
0
0
0
0
0
0
0
0
0
0
0
0
0
0
0
0
0
1
0
1
1
0
0
0
0
0
0
0
0
0
0
0
0
0
1
0
1
0
0
0
0
1
0
0
0
0
0
0
0
0
1
1
0
0
0
0
0
1
0
0
0
0
0
0
0
0
1
0
0
0
0
0
0
0
0
0
0
0
0
0
0
0
0
0
0
0
0
0
0
0
0
0
0
0
0
0
0
0
0
1
0
0
0
0
0
0
0
0
0
0
0
0
0
0
0
0
0
0
0
0
0
0
0
0
0
0
0
0
0
0
0
0
0
0
0
0
0
0
0
0
0
0
0
0
0
0
0
1
0
0
0
0
0
0
0
0
0
0
0
0
0
0
0
0
0
0
0
0
0
0
0
0
0
0
0
0
0
0
0
0
0
0
0
0
0
0
0
0
0
0
0
0
0
0
0
0
0
0
1
0
0
0
0
0
0
0
0
0
0
0
0
0
0
0
0
0
0
0
0
0
0
0
0
0
0
0
0
0
0
0
0
0
0
0
0
0
0
0
0
0
0
0
0
0
0
0
0
0
0
0
0
0
0
0
0
0
1
0
0
0
0
0
0
0
0
0
0
0
0
0
0
0
0
0
0
0
0
0
0
0
0
0
0
0
0
0
0
0
0
0
0
0
0
0
0
0
0
0
0
0
0
0
0
0
0
0
0
0
0
0
0
0
0
0
0
0
0
0
0
0
0
0
0
0
0
0
0
0
0
0
0
0
0
0
0
0
0
0
0
0
0
0
0
0
0
0
0
0
0
0
0
0
0
0
0
0
0
0
0
0
0
0
0
0
0
0
0
0
0
0
0
0
0
0
0
0
0
0
0
0
0
0
0
0
0
0
0
0
0
1
0
0
0
0
0
0
0
0
0
0
0
0
0
0
0
0
0
0
0
1
0
0
0
0
0
0
0
0
0
0
0
0
0
0
0
0
0
0
0
0
0
0
0
0
0
0
0
0
0
0
0
0
0
0
0
0
0
0
0
0
0
0
0
0
0
0
0
0
0
0
0
0
0
1
0
0
0
0
0
0
0
0
0
0
0
0
0
0
0
0
0
0
0
0
0
0
0
1
0
0
0
0
0
0
0
0
0
0
0
0
0
0
0
0
0
0
0
1
0
0
0
1
0
0
0
0
0
0
0
0
0
0
0
0
0
0
0
0
0
0
0
0
0
0
0
0
0
1
0
0
0
0
0
0
0
1
0
0
0
0
0
0
0
0
0
0
0
0
0
0
0
0
0
0
0
0
0
0
0
0
0
0
1
0
0
0
0
0
0
0
1
0
0
0
0
0
0
1
0
0
0
0
0
0
0
0
0
0
0
0
0
0
0
0
0
0
0
0
0
0
0
0
0
0
0
0
0
0
0
0
0
0
0
0
0
0
1
0
0
0
0
0
1
0
0
0
0
0
0
0
1
0
0
0
0
0
0
0
0
0
0
0
0
0
1
0
0
0
0
0
0
0
0
0
0
0
0
0
0
0
0
0
0
0
0
0
0
0
0
0
0
0
0
0
0
0
0
0
0
0
0
0
0
0
0
0
0
0
0
0
0
0
0
0
0
0
0
0
1
0
0
0
0
0
0
0
0
0
0
0
0
0
0
0
0
0
0
0
1
0
0
0
0
0
0
0
0
0
1
0
0
0
0
0
0
0
0
0
0
0
0
0
0
0
0
0
0
0
0
0
0
0
0
0
0
0
0
0
1
0
1
0
0
0
0
0
0
0
0
0
0
0
0
0
0
0
0
0
0
0
0
0
0
0
0
0
0
0
1
0
0
0
1
0
0
0
0
0
0
0
0
0
0
0
0
0
0
0
0
0
0
0
0
0
0
0
0
0
0
0
0
1
0
0
0
0
0
0
0
0
0
0
0
0
0
0
0
0
0
0
0
0
0
0
0
0
0
1
0
0
0
0
0
0
0
0
0
0
0
0
0
0
0
0
0
0
0
0
0
0
0
1
0
0
0
0
0
0
1
0
0
0
0
0
0
0
0
0
0
0
1
0
0
0
0
0
0
0
0
0
0
0
0
0
0
0
0
0
0
0
0
1
0
0
0
0
0
0
0
0
0
0
0
1
0
0
0
0
0
0
0
0
0
0
0
0
0
0
0
0
0
0
0
0
0
1
0
0
0
0
0
0
0
0
0
1
1
0
1
0
1
0
0
0
0
0
0
0
0
0
0
0
1
0
0
0
0
0
1
1
0
0
0
0
0
0
1
0
0
0
0
0
1
1
1
0
0
0
0
0
0
0
0
0
0
0
0
1
1
0
0
1
0
0
0
0
0
1
0
0
0
1
0
1
0
0
0
0
0
0
0
1
0
0
0
0
0
0
0
1
0
0
1
0
0
0
0
0
0
0
0
0
0
0
0
0
0
0
1
0
0
0
0
0
0
0
0
0
0
0
0
0
0
0
0
0
0
0
0
0
0
0
0
0
0
0
0
0
0
0
0
0
0
0
0
1
0
0
0
0
0
0
1
0
0
0
1
0
0
0
0
0
0
0
0
0
0
0
1
0
0
0
0
0
0
0
0
0
0
0
0
0
0
0
0
0
0
0
0
0
0
0
0
0
0
0
0
0
0
0
0
0
0
0
0
0
0
0
0
1
1
0
0
0
0
0
0
0
0
0
0
0
0
0
1
0
0
0
0
0
0
0
0
0
0
0
0
0
0
0
0
0
0
0
0
0
0
0
0
0
0
0
0
0
0
0
0
0
0
0
0
0
0
0
0
0
0
0
0
0
0
0
0
0
0
0
0
0
0
0
0
0
0
0
0
0
0
0
0
0
0
0
0
0
0
0
0
1
1
0
0
0
0
0
0
0
0
1
0
0
0
0
0
0
0
0
0
0
0
0
0
0
0
0
0
0
0
0
0
0
0
1
0
0
0
0
0
0
0
0
0
0
0
0
0
0
0
0
1
0
0
0
0
0
0
0
0
0
0
0
0
0
0
0
0
0
0
0
0
0
0
0
0
0
0
0
0
0
0
0
0
0
0
0
0
0
0
0
0
0
0
0
0
0
0
0
0
0
0
0
0
0
0
0
0
0
0
0
0
0
0
0
0
0
0
0
0
0
0
0
0
0
0
0
0
0
0
0
0
0
0
0
0
0
0
0
0
0
0
1
1
0
0
0
0
0
1
0
0
0
0
0
0
0
0
0
0
0
0
1
0
0
0
0
0
0
0
0
0
0
0
0
0
0
0
0
0
0
0
0
0
0
0
0
0
0
0
0
0
0
0
0
0
0
0
0
0
0
0
0
0
0
0
0
0
0
0
0
0
0
0
0
0
1
0
1
0
0
0
0
0
0
0
0
0
0
0
0
0
0
0
0
0
0
1
0
0
0
0
0
0
0
0
0
0
0
0
0
0
0
0
0
0
0
0
0
0
0
0
0
0
0
0
0
0
0
0
0
0
0
0
0
0
0
0
0
0
0
0
0
0
0
0
0
0
0
0
0
0
0
0
0
0
0
0
0
0
0
0
0
0
0
0
0
0
1
0
0
0
0
0
0
0
0
0
0
1
0
0
0
0
0
0
0
0
0
0
0
0
0
0
0
0
0
0
0
0
0
0
0
0
0
0
0
0
0
0
0
0
0
0
0
0
0
1
0
0
0
0
0
0
0
0
0
0
0
0
0
0
0
0
0
0
0
0
0
0
0
0
0
0
0
0
0
0
0
0
0
0
0
0
0
0
0
0
0
0
0
0
0
0
0
0
0
0
0
0
0
0
0
0
0
0
0
0
0
0
0
0
0
0
0
0
0
0
0
0
0
0
0
0
0
0
0
0
0
1
0
0
0
0
0
0
0
0
0
0
0
0
0
0
0
0
0
0
0
0
0
0
0
0
0
0
0
0
0
0
0
0
0
0
0
0
0
0
0
0
0
0
0
0
0
0
0
0
0
0
0
0
0
0
0
0
0
0
0
0
0
0
0
0
0
0
0
0
0
0
0
0
0
0
0
0
0
0
0
0
0
0
0
0
0
0
0
0
0
0
0
0
0
0
0
0
0
0
0
0
0
0
0
0
0
0
0
0
0
0
0
0
0
0
0
0
0
0
0
0
0
0
0
1
0
0
0
0
0
0
0
0
0
0
0
0
0
0
0
0
0
0
0
0
0
0
0
0
0
0
0
0
0
0
0
0
0
0
0
0
0
0
0
0
0
0
0
0
0
0
0
0
0
0
0
0
0
0
0
0
0
0
0
0
0
0
0
0
0
0
0
0
0
0
0
0
0
0
0
0
0
0
0
0
0
1
0
0
0
0
0
0
0
1
0
0
0
0
0
0
0
0
0
0
0
0
0
0
0
0
0
0
0
0
0
0
0
0
0
0
0
0
0
0
0
0
0
0
0
0
0
1
0
0
0
0
0
0
0
0
0
0
0
0
0
0
0
0
0
0
0
0
0
1
0
0
0
0
0
0
0
0
0
0
0
0
1
1
0
0
0
0
0
0
0
0
0
0
0
0
0
0
0
1
1
0
1
0
0
0
0
0
0
0
0
0
1
0
0
0
0
0
0
1
0
0
0
0
0
0
0
0
0
0
1
0
0
0
0
1
0
1
0
0
0
0
0
0
0
1
0
0
0
1
0
0
0
1
0
1
1
0
0
1
1
0
0
0
1
0
0
0
1
0
0
0
0
0
0
0
0
0
1
0
0
0
0
0
0
1
0
0
0
0
0
0
0
0
0
0
0
0
0
0
0
0
0
0
0
0
0
0
0
0
0
0
0
1
0
0
1
0
0
0
0
0
0
0
0
0
0
0
0
0
0
0
0
0
0
1
0
0
1
0
0
0
0
0
0
0
0
0
0
0
1
0
0
1
0
0
0
0
0
0
0
0
0
0
0
1
1
0
0
0
0
0
0
0
0
0
0
0
0
1
0
0
0
0
0
0
0
0
0
0
0
0
0
0
0
0
0
1
0
0
0
0
0
0
0
0
0
0
0
0
0
0
0
0
0
1
0
0
0
0
0
0
0
0
0
0
0
0
0
0
0
0
0
0
0
0
0
0
0
0
0
0
0
0
0
0
0
0
0
0
0
0
0
0
0
0
1
0
0
0
0
0
0
0
0
0
0
0
0
0
0
0
0
0
0
0
0
0
0
0
0
0
0
0
0
0
0
0
0
0
0
0
0
0
0
0
0
0
0
0
0
0
1
0
0
0
0
0
0
0
0
0
0
0
0
0
0
0
0
0
0
0
0
0
0
0
0
0
0
0
0
0
0
0
0
0
0
0
0
0
0
0
0
0
0
0
0
0
0
0
1
0
0
0
0
0
0
0
0
0
0
1
0
0
0
0
0
0
0
0
0
0
0
0
0
0
0
1
0
0
1
0
0
0
0
0
0
0
0
0
0
0
0
0
0
0
0
0
0
0
0
0
0
0
1
0
0
0
0
0
0
0
0
0
0
0
0
0
0
0
0
0
0
0
0
0
0
0
0
0
0
0
0
0
0
0
0
0
0
0
1
0
0
0
0
0
0
0
0
0
0
0
0
0
0
0
0
0
0
0
0
0
0
0
0
0
0
0
0
0
0
0
0
0
0
0
0
0
0
0
0
0
0
0
0
0
0
0
0
0
0
0
0
0
0
0
0
0
0
0
0
0
0
0
0
0
0
0
0
0
0
0
0
0
0
0
0
1
0
0
0
0
0
0
0
0
0
0
0
0
0
0
0
0
0
0
0
0
0
0
0
0
0
0
0
0
0
0
0
0
0
0
0
0
0
0
0
1
0
0
0
0
0
0
0
0
0
0
0
0
1
1
0
0
0
0
0
0
0
0
0
0
0
0
0
0
0
0
0
0
0
0
0
0
0
0
0
0
0
0
0
0
0
0
0
0
0
0
0
0
0
0
0
0
0
0
0
0
0
0
0
0
0
0
0
0
0
0
0
0
0
0
0
0
0
0
0
0
0
0
0
0
0
0
0
0
0
0
0
0
0
0
0
0
0
0
0
0
0
0
0
0
0
0
0
0
0
0
0
0
0
0
0
1
0
1
0
0
0
0
0
0
0
1
1
1
1
0
0
0
0
0
0
0
0
0
0
0
0
0
0
0
0
0
0
0
0
0
0
0
0
0
0
0
0
1
1
0
0
0
0
0
0
0
0
0
0
0
0
0
0
0
0
0
0
1
0
0
0
0
0
0
0
1
1
0
1
1
0
0
1
0
0
0
0
0
0
0
1
0
1
0
0
0
0
0
0
0
0
0
0
0
0
0
0
0
0
0
0
0
0
0
0
0
0
0
0
0
1
1
0
0
0
1
1
0
0
0
0
1
0
0
1
0
1
0
0
0
0
0
1
0
0
0
1
0
0
0
0
0
0
0
0
0
0
0
0
0
0
0
0
0
0
0
0
0
0
0
0
0
0
0
1
0
0
0
0
0
0
1
0
0
0
0
0
0
0
0
0
0
0
0
0
0
0
0
0
0
0
0
0
0
0
0
0
0
0
0
0
1
0
1
0
0
0
0
0
0
0
1
0
0
0
0
0
0
0
0
0
0
0
1
0
0
0
0
0
0
0
0
0
1
0
0
0
0
0
0
0
1
0
0
0
0
0
0
0
1
0
0
0
0
0
0
0
0
0
0
0
0
0
0
0
0
0
0
0
1
0
1
0
0
0
0
0
1
0
0
0
0
0
0
0
0
0
0
0
0
0
0
0
0
0
0
0
0
0
0
0
0
0
1
0
1
0
0
0
0
0
0
0
0
0
1
0
0
0
0
0
1
0
0
0
0
0
0
0
0
0
0
0
0
0
0
0
1
0
0
0
0
0
0
0
0
1
0
0
0
0
0
0
0
0
0
0
0
0
0
0
0
0
0
0
0
0
0
0
0
0
0
0
0
0
0
0
1
0
0
0
0
0
0
0
0
0
0
0
0
0
0
0
0
1
0
0
0
0
0
0
0
0
1
0
0
0
0
0
0
0
0
0
1
0
0
0
0
0
1
0
0
0
0
0
0
0
0
0
0
0
0
0
0
0
0
0
0
0
1
0
0
0
0
0
0
1
0
0
0
0
0
0
0
0
1
0
0
0
0
0
0
0
0
0
0
0
0
0
0
1
0
0
1
0
0
0
1
0
0
0
0
0
0
0
0
0
0
0
0
0
0
0
0
1
0
0
0
0
0
0
0
0
0
0
1
0
1
0
0
0
0
0
0
1
0
0
0
0
0
0
0
0
0
0
0
0
0
0
0
0
0
0
0
0
0
0
0
0
0
0
0
1
1
0
0
0
0
0
0
1
0
0
0
0
0
0
0
0
0
0
0
0
0
1
0
0
0
0
0
0
0
1
0
0
0
0
0
0
0
0
0
0
0
0
0
0
0
0
0
0
0
0
0
0
0
0
0
0
0
1
0
0
0
0
0
0
0
0
0
0
1
0
0
1
0
0
0
0
0
0
0
0
0
0
0
0
0
0
0
0
0
0
0
0
0
0
0
0
0
0
0
0
0
1
0
0
0
0
0
0
0
1
0
0
0
0
0
0
0
1
0
0
0
0
1
0
0
0
0
0
0
0
0
0
0
0
1
0
1
0
0
0
1
0
				</DataArray>
				<DataArray type="Float64" Name="h" NumberOfComponents="1" Format="ascii">
1.1599047929
1.1599056507
1.1595778831
1.1594051348
1.1596182563
1.1598110792
1.1595179922
1.1595924320
1.1598398817
1.1595711732
1.1594781559
1.1595729829
1.1597504249
1.1593954419
1.1597467514
1.1600537033
1.1593503543
1.1596297296
1.1599466147
1.1592088616
1.1596377982
1.1599856145
1.1598361239
1.1598138981
1.1593251176
1.1604844084
1.1599649602
1.1596650424
1.1598228639
1.1593469993
1.1591878567
1.1597677425
1.1601203083
1.1596528673
1.1600207304
1.1598258280
1.1598166161
1.1598244583
1.1593631742
1.1596975530
1.1597087510
1.1597899274
1.1598723804
1.1597797039
1.1597297732
1.1597122689
1.1597411278
1.1602837343
1.1600901885
1.1598666016
1.1598834873
1.1598047158
1.1597019754
1.1598956046
1.1598769128
1.1598364621
1.1596908433
1.1603802287
1.1603615189
1.1600619410
1.1606857287
1.1607047261
1.1601654797
1.1597591391
1.1595442123
1.1595380318
1.1596217643
1.1599340733
1.1606032138
1.1606274720
1.1602921492
1.1600021421
1.1597142305
1.1599596033
1.1601561887
1.1589151143
1.1603475779
1.1605067653
1.1601980957
1.1593174083
1.1608009074
1.1595967433
1.1601682716
1.1596526470
1.1592578835
1.1590381777
1.1609032687
1.1593207117
1.1603570286
1.1600337531
1.1606484998
1.1589600709
1.1605470645
1.1598684003
1.1592752890
1.1591618809
1.1592373426
1.1591663468
1.1593184741
1.1607828913
1.1602047071
1.1610111986
1.1595269824
1.1603578346
1.1597300621
1.1595087680
1.1588476493
1.1601352788
1.1604586831
1.1594068409
1.1598284083
1.1600367615
1.1605757217
1.1603998375
1.1597126982
1.1609149374
1.1596720511
1.1596722408
1.1605785419
1.1599445863
1.1595576824
1.1593263785
1.1586152681
1.1591086216
1.1603493342
1.1603078696
1.1598799923
1.1593799631
1.1610952144
1.1607740132
1.1608518936
1.1590264120
1.1601193117
1.1613143538
1.1592989999
1.1607139085
1.1605566088
1.1611154173
1.1611700845
1.1602842791
1.1597351888
1.1590494624
1.1608159362
1.1601751506
1.1587612325
1.1608703237
1.1604086832
1.1607661373
1.1593187454
1.1608305857
1.1604540424
1.1612792650
1.1610745925
1.1611325323
1.1610622499
1.1608687699
1.1613108607
1.1597966796
1.1609563821
1.1594764053
1.1603097604
1.1609200532
1.1604630570
1.1595786773
1.1596300585
1.1606102422
1.1599287096
1.1604951274
1.1590657105
1.1607906343
1.1613402074
1.1591803166
1.1611953696
1.1599372725
1.1597714564
1.1612326997
1.1600817179
1.1603656113
1.1612596750
1.1597122742
1.1607663602
1.1594012451
1.1595843505
1.1583399131
1.1592424829
1.1590705145
1.1596209091
1.1610864082
1.1590733907
1.1589987708
1.1589888040
1.1612852777
1.1593955126
1.1592889137
1.1612283587
1.1604612404
1.1601218112
1.1585676862
1.1588990611
1.1605296437
1.1590018446
1.1583885315
1.1590343825
1.1609516299
1.1581774830
1.1602086050
1.1606823193
1.1606568546
1.1584884552
1.1602367720
1.1589800580
1.1592540860
1.1602397835
1.1603207697
1.1607410162
1.1584793868
1.1604973100
1.1603721364
1.1594542045
1.1597760975
1.1581463082
1.1597528646
1.1598778660
1.1592662098
1.1581475749
1.1603214213
1.1600620441
1.1588104074
1.1578712732
1.1599275206
1.1606427122
1.1595327380
1.1585015598
1.1603770273
1.1602482656
1.1589855456
1.1586393684
1.1609232834
1.1598185309
1.1602623261
1.1586105696
1.1610359791
1.1606848019
1.1600903551
1.1608109910
1.1607054215
1.1605122304
1.1591586700
1.1610583299
1.1608245481
1.1606494468
1.1592106256
1.1606605788
1.1581395520
1.1580259740
1.1608578273
1.1604396411
1.1608341957
1.1603186961
1.1593609688
1.1597733016
1.1576621010
1.1583692716
1.1589395940
1.1582154985
1.1600592024
1.1599957302
1.1576403440
1.1601699758
1.1594530100
1.1597708370
1.1596557090
1.1597495479
1.1587947709
1.1590871062
1.1573867679
1.1580143466
1.1586582950
1.1592195879
1.1578896613
1.1598818328
1.1600305367
1.1601207158
1.1599398543
1.1596352182
1.1595785454
1.1585338458
1.1611584754
1.1610072047
1.1611908682
1.1609080632
1.1582546052
1.1614536980
1.1612181440
1.1602520604
1.1582242582
1.1600586669
1.1613877092
1.1613055819
1.1608556348
1.1614215124
1.1611385707
1.1588707186
1.1575810750
1.1576938027
1.1607731573
1.1589269423
1.1605387448
1.1611184593
1.1571981564
1.1584034222
1.1579324689
1.1598189716
1.1571412375
1.1594773100
1.1590112216
1.1596220811
1.1594511897
1.1596752784
1.1594890304
1.1586044913
1.1577130777
1.1591453902
1.1597515527
1.1575508289
1.1580719318
1.1582857132
1.1597940450
1.1587188919
1.1592607196
1.1595899402
1.1596343290
1.1596909910
1.1569419600
1.1588960174
1.1573796204
1.1593380161
1.1611060332
1.1588310774
1.1602282008
1.1578780643
1.1599987516
1.1615375850
1.1578808695
1.1618942245
1.1614007796
1.1616236827
1.1617292207
1.1586342694
1.1565270165
1.1572093892
1.1578349043
1.1614452519
1.1616264103
1.1586363635
1.1608890381
1.1568355330
1.1586544366
1.1606145230
1.1581527163
1.1583601470
1.1584408364
1.1614191670
1.1585725755
1.1572876624
1.1617374015
1.1565242707
1.1566211583
1.1571351011
1.1620117809
1.1574166683
1.1583768086
1.1618299228
1.1593675600
1.1586660603
1.1582707330
1.1594495759
1.1644628692
1.1591903310
1.1568088684
1.1567148130
1.1591434779
1.1594819225
1.1594625136
1.1588422507
1.1592994798
1.1572398204
1.1579975198
1.1575315011
1.1619416771
1.1593661298
1.1566026824
1.1583504580
1.1578650610
1.1593394185
1.1585811640
1.1657695302
1.1644891562
1.1638136184
1.1590117011
1.1571423454
1.1592937463
1.1598898585
1.1589334736
1.1583252207
1.1594768261
1.1590456060
1.1569145863
1.1576194530
1.1608946138
1.1579177359
1.1564111950
1.1583454768
1.1566632124
1.1613132170
1.1586817829
1.1587456479
1.1599449318
1.1581266245
1.1565953622
1.1568953585
1.1569381608
1.1620505996
1.1585286662
1.1585099913
1.1577010793
1.1589018864
1.1621070933
1.1582129396
1.1575826103
1.1567923567
1.1584904606
1.1577212480
1.1584798545
1.1571064360
1.1574956123
1.1583016135
1.1585780971
1.1588988366
1.1573764090
1.1569700568
1.1576618264
1.1617708046
1.1580618365
1.1573235221
1.1606915867
1.1569318739
1.1573780749
1.1580498877
1.1581514006
1.1577268541
1.1588707107
1.1620093504
1.1563778492
1.1583185036
1.1569381653
1.1583093872
1.1583922128
1.1572358142
1.1584386017
1.1621737022
1.1569921548
1.1615564638
1.1591644323
1.1591306151
1.1583375040
1.1573175258
1.1568480278
1.1588535830
1.1625207481
1.1591617683
1.1599459741
1.1588450340
1.1581768152
1.1564334931
1.1576196573
1.1584555618
1.1616752364
1.1627185410
1.1650034957
1.1650741529
1.1568781222
1.1621361354
1.1591771072
1.1585242636
1.1584439390
1.1590059652
1.1649148179
1.1579991277
1.1654560617
1.1577264276
1.1565594489
1.1585359350
1.1627657381
1.1657689212
1.1629418141
1.1608083698
1.1585924715
1.1586217051
1.1661818488
1.1583021638
1.1582949038
1.1627854329
1.1638136499
1.1590118427
1.1590415921
1.1572223912
1.1626302897
1.1565575592
1.1579973393
1.1649152096
1.1574327141
1.1579262167
1.1599465754
1.1578236797
1.1627162708
1.1578488327
1.1570602970
1.1629399249
1.1603219847
1.1574333957
1.1570487298
1.1573637712
1.1585832767
1.1620043326
1.1581814271
1.1684067906
1.1574925221
1.1579616753
1.1575967677
1.1579574702
1.1615566056
1.1574762058
1.1629169352
1.1625196405
1.1603694605
1.1627635912
1.1608088349
1.1626279605
1.1579616886
1.1568786878
1.1614013889
1.1658301121
1.1628570176
1.1637186614
1.1612341534
1.1670338395
1.1581775150
1.1625434000
1.1666337747
1.1584219751
1.1648406419
1.1625736038
1.1588303433
1.1630327622
1.1583539509
1.1569846767
1.1672266132
1.1582978718
1.1584313029
1.1584108082
1.1675470887
1.1583924802
1.1621357285
1.1595029646
1.1585772613
1.1590422480
1.1573172208
1.1580911981
1.1588756605
1.1593498241
1.1577296079
1.1581847630
1.1578075757
1.1565946340
1.1636440603
1.1563603086
1.1578353845
1.1579262329
1.1585796822
1.1615616933
1.1580500035
1.1583021872
1.1706849757
1.1579431512
1.1635613867
1.1589007857
1.1583448680
1.1569312114
1.1720844114
1.1589058494
1.1614259214
1.1638288009
1.1598340587
1.1710035007
1.1563774171
1.1577915895
1.1635327329
1.1585020351
1.1605948657
1.1582959603
1.1595319981
1.1584720397
1.1624438111
1.1577011782
1.1684682784
1.1640574873
1.1584457474
1.1587447674
1.1747499191
1.1656370340
1.1637524469
1.1583801194
1.1730288539
1.1578353721
1.1631257807
1.1582586463
1.1629160219
1.1593502940
1.1575973028
1.1620043832
1.1583515128
1.1580557015
1.1637513438
1.1629380251
1.1605590678
1.1761423865
1.1587135646
1.1630309739
1.1720212692
1.1640575512
1.1748205538
1.1702445282
1.1569850767
1.1603223643
1.1584113534
1.1625732562
1.1586196472
1.1587468373
1.1585158250
1.1580972178
1.1628549878
1.1661483493
1.1625059370
1.1584989234
1.1584527168
1.1582966972
1.1588303700
1.1671406520
1.1584910624
1.1794432197
1.1613766948
1.1641230715
1.1637016651
1.1815363698
1.1593770774
1.1578068380
1.1612344197
1.1585385372
1.1623195301
1.1639870389
1.1640492364
1.1584021950
1.1586742311
1.1587787623
1.1584210639
1.1779769463
1.1603660282
1.1641710000
1.1631150075
1.1587734301
1.1588391316
1.1603695626
1.1682516544
1.1620979312
1.1735281337
1.1587068822
1.1748023704
1.1729944401
1.1593048378
1.1590933497
1.1625435359
1.1647735762
1.1589078342
1.1671957796
1.1695948599
1.1773073226
1.1588989184
1.1591812088
1.1589676542
1.1684407413
1.1694784080
1.1778563204
1.1750312522
1.1736857458
1.1589743868
1.1591049124
1.1585981000
1.1588156559
1.1819076617
1.1592428385
1.1592951047
1.1765659391
1.1587467684
1.1586954907
1.1747501102
1.1595744896
1.1648408038
1.1589265398
1.1685345064
1.1679406506
1.1596724782
1.1730289407
1.1593370862
1.1590794623
1.1675469447
1.1588083654
1.1692793706
1.1712260866
1.1587561068
1.1587608274
1.1663160570
1.1597669458
1.1596562594
1.1596566307
1.1597669310
1.1596406728
1.1595734730
1.1594778570
1.1596388755
1.1598249644
1.1598114831
1.1596179119
1.1598248487
1.1598393240
1.1597459768
1.1595177999
1.1595691361
1.1596397919
1.1596405502
1.1599855964
1.1596288244
1.1594059818
1.1595774374
1.1599465468
1.1593467274
1.1599068773
1.1594840552
1.1595928500
1.1604841729
1.1593245091
1.1595719657
1.1600952508
1.1597520221
1.1597965546
1.1601823038
1.1598268966
1.1595697044
1.1591874744
1.1599869276
1.1596531219
1.1601179330
1.1597673146
1.1600526163
1.1596977578
1.1595078618
1.1593505326
1.1600557168
1.1598723199
1.1593632161
1.1594834661
1.1599077514
1.1597087726
1.1593959182
1.1592098199
1.1597963462
1.1598357559
1.1601043320
1.1599864188
1.1599326510
1.1600964202
1.1596373883
1.1598281967
1.1599922985
1.1596358011
1.1602830012
1.1601845156
1.1597295665
1.1598832032
1.1597409201
1.1596637914
1.1598139127
1.1598224310
1.1596900297
1.1595647361
1.1599671085
1.1598067615
1.1599756344
1.1595054004
1.1598710994
1.1600795549
1.1600550302
1.1597016113
1.1601050630
1.1599260299
1.1601095575
1.1599923975
1.1599329508
1.1599571825
1.1596360741
1.1598264450
1.1595451039
1.1598232556
1.1599757728
1.1600214934
1.1601667127
1.1599323753
1.1597350787
1.1598168265
1.1597588529
1.1598717127
1.1602674321
1.1601734176
1.1597785284
1.1599581085
1.1599789342
1.1600016234
1.1597131268
1.1605105755
1.1594834825
1.1595792326
1.1598071413
1.1608416739
1.1600803727
1.1597918795
1.1603467103
1.1602914247
1.1600688848
1.1601548469
1.1595626482
1.1596779086
1.1606025140
1.1600449175
1.1599767202
1.1606264281
1.1599578391
1.1599765911
1.1594015944
1.1597357044
1.1598657418
1.1600765276
1.1597049670
1.1600887852
1.1598056915
1.1601109175
1.1597120842
1.1595968300
1.1596502607
1.1598032254
1.1599257278
1.1598682981
1.1606863069
1.1607056576
1.1596767395
1.1607737721
1.1600697522
1.1603625989
1.1601594891
1.1599797191
1.1589396760
1.1595802034
1.1602683632
1.1600456589
1.1599531871
1.1598778281
1.1605425305
1.1605111874
1.1608427676
1.1598381758
1.1597052300
1.1602014244
1.1594834755
1.1598954431
1.1601742805
1.1600625736
1.1589613834
1.1603810828
1.1595769378
1.1605467783
1.1598671067
1.1603567445
1.1593180919
1.1598034034
1.1592813168
1.1600769072
1.1610106022
1.1594852379
1.1607456349
1.1596379791
1.1595387354
1.1602087409
1.1596249606
1.1601345970
1.1591693622
1.1608936872
1.1591619517
1.1599011527
1.1597079716
1.1607832928
1.1595054293
1.1594019322
1.1603456301
1.1597050010
1.1604579610
1.1600391635
1.1607744245
1.1602024662
1.1605751921
1.1599536465
1.1589150883
1.1596692091
1.1601603938
1.1605073906
1.1595806509
1.1606853146
1.1589389617
1.1598272746
1.1594070671
1.1605430740
1.1607458252
1.1603418796
1.1597834280
1.1608943699
1.1590376394
1.1593245876
1.1601910852
1.1601355113
1.1600836341
1.1599012296
1.1596399048
1.1592570714
1.1593162853
1.1609031555
1.1601638993
1.1608010593
1.1596713625
1.1601988479
1.1594899578
1.1595577292
1.1593231576
1.1592806784
1.1606844112
1.1590261073
1.1595838338
1.1600306878
1.1603109489
1.1603669322
1.1605318195
1.1603571664
1.1592750311
1.1598673763
1.1605393808
1.1600301557
1.1606474123
1.1603997608
1.1604275709
1.1603483088
1.1598785471
1.1596720655
1.1607759217
1.1595280717
1.1604755016
1.1594530039
1.1597838175
1.1600837644
1.1601910029
1.1603206586
1.1592993691
1.1607156166
1.1601194556
1.1597300127
1.1592392019
1.1587610938
1.1592355369
1.1590502747
1.1601788256
1.1600311615
1.1605370278
1.1603986776
1.1601323082
1.1602011812
1.1604284622
1.1605310488
1.1597143563
1.1593196717
1.1595887100
1.1608173273
1.1590580980
1.1609128150
1.1603673335
1.1608717308
1.1603975173
1.1588482496
1.1593776141
1.1586045497
1.1592139466
1.1613218301
1.1604727286
1.1603193694
1.1603036096
1.1610707849
1.1602984644
1.1609793176
1.1599449431
1.1594593643
1.1612801521
1.1596719045
1.1610196302
1.1605765231
1.1593752549
1.1604550588
1.1610756948
1.1610622015
1.1602026812
1.1590567545
1.1604943283
1.1596310753
1.1601799605
1.1609496167
1.1593766319
1.1593785131
1.1606639599
1.1591384963
1.1592425346
1.1591073740
1.1610941025
1.1603078015
1.1595367719
1.1586160989
1.1608503762
1.1590845310
1.1604629223
1.1610487988
1.1609213953
1.1593786509
1.1609571479
1.1609787124
1.1605577974
1.1613132906
1.1610701770
1.1589261290
1.1602948777
1.1609606398
1.1611139667
1.1611960223
1.1591584558
1.1601951665
1.1611697889
1.1593748843
1.1592208555
1.1603021414
1.1613208256
1.1586051351
1.1610186661
1.1607919537
1.1612690064
1.1610696950
1.1613409901
1.1599385160
1.1608300139
1.1595863804
1.1590039794
1.1595361332
1.1593770218
1.1604371960
1.1610449464
1.1611088483
1.1601775092
1.1607648535
1.1604093266
1.1597141392
1.1606633291
1.1590842933
1.1591429310
1.1598435275
1.1597338950
1.1607684662
1.1610478163
1.1600798371
1.1611982400
1.1602865250
1.1609484929
1.1594962625
1.1590752261
1.1608667512
1.1613100645
1.1601936286
1.1587016098
1.1610690620
1.1591272915
1.1591584667
1.1589303201
1.1592443778
1.1609586475
1.1611316788
1.1597951892
1.1612681877
1.1596199470
1.1586111203
1.1612286500
1.1599305311
1.1594944740
1.1604342136
1.1604633338
1.1598415015
1.1611082166
1.1611976900
1.1605578514
1.1592599313
1.1610438826
1.1590075905
1.1593983717
1.1612855278
1.1612553658
1.1595767653
1.1606078242
1.1592886498
1.1605537130
1.1594744857
1.1583868070
1.1610308429
1.1591784414
1.1590364831
1.1597727491
1.1609516170
1.1587050371
1.1590639820
1.1590038899
1.1591265206
1.1588989157
1.1608890922
1.1612594074
1.1600302287
1.1592579438
1.1593966792
1.1592561036
1.1605531807
1.1605561479
1.1599461334
1.1602787109
1.1594018708
1.1612545163
1.1612323584
1.1586130367
1.1593766911
1.1592351077
1.1603646397
1.1602418517
1.1584879147
1.1589892156
1.1606421974
1.1610307210
1.1589967335
1.1608890484
1.1607763430
1.1607194303
1.1583414263
1.1590684228
1.1610861853
1.1581459319
1.1605144565
1.1607045155
1.1603859702
1.1608125661
1.1585682667
1.1592330546
1.1580136199
1.1596258311
1.1600885019
1.1605277309
1.1600282207
1.1586383200
1.1593933919
1.1595987526
1.1602759073
1.1601198619
1.1600440111
1.1608344470
1.1607559580
1.1581388194
1.1604378432
1.1606628756
1.1591574893
1.1593746887
1.1598205431
1.1599440220
1.1604496922
1.1577066855
1.1581779488
1.1607764761
1.1595774256
1.1596542127
1.1607196763
1.1590801903
1.1578891927
1.1601199755
1.1598852262
1.1601667111
1.1585291108
1.1576408030
1.1597515157
1.1605301732
1.1593561790
1.1582129815
1.1601686993
1.1599858206
1.1600603310
1.1587883529
1.1589809473
1.1609073592
1.1609441624
1.1597739163
1.1600571359
1.1582536435
1.1605255137
1.1580143293
1.1603841161
1.1600503602
1.1575202451
1.1612199450
1.1610096267
1.1596237729
1.1602389417
1.1606555145
1.1606832595
1.1602063022
1.1594553470
1.1611390517
1.1611210772
1.1595967063
1.1605373136
1.1588695210
1.1603697686
1.1584803129
1.1576932469
1.1611955536
1.1605427104
1.1604994068
1.1607538115
1.1607409907
1.1600419231
1.1595362752
1.1594876682
1.1572422176
1.1573807012
1.1580691630
1.1587128113
1.1585051798
1.1599829632
1.1602475333
1.1597926875
1.1578716540
1.1603779308
1.1598689354
1.1592586706
1.1595916999
1.1598795789
1.1604502503
1.1599242647
1.1589920747
1.1592729079
1.1571422943
1.1577128323
1.1583981933
1.1590064470
1.1581493596
1.1600579859
1.1601640289
1.1598168550
1.1577070887
1.1603223946
1.1597518570
1.1594516990
1.1596884326
1.1597524164
1.1588152067
1.1611056321
1.1614033547
1.1606823764
1.1600482501
1.1615401690
1.1609240295
1.1586116924
1.1570626915
1.1616254813
1.1575207839
1.1610342392
1.1599976498
1.1578799954
1.1602639253
1.1609417115
1.1614458673
1.1616292028
1.1605405443
1.1610773939
1.1610578363
1.1592117271
1.1572869920
1.1616715056
1.1580268707
1.1611930027
1.1606135526
1.1585715978
1.1606510141
1.1608219563
1.1569160820
1.1586641154
1.1576191669
1.1600323327
1.1573859157
1.1592944229
1.1592242274
1.1592984260
1.1596335235
1.1596868947
1.1595723237
1.1594742406
1.1568492900
1.1597745931
1.1583465462
1.1580162520
1.1589319770
1.1599392813
1.1572411256
1.1583733812
1.1579949489
1.1599970669
1.1572423656
1.1593922980
1.1589460805
1.1594542206
1.1597678991
1.1594483701
1.1594786462
1.1567154366
1.1586627219
1.1576621037
1.1591436220
1.1598666067
1.1586802162
1.1567928902
1.1567141818
1.1581273010
1.1611588441
1.1614007385
1.1586739714
1.1585971275
1.1599441565
1.1567166188
1.1575816475
1.1602530471
1.1578922841
1.1585291278
1.1586317112
1.1611883873
1.1582253471
1.1570635851
1.1620521352
1.1613130213
1.1614517760
1.1564114600
1.1567391865
1.1574961531
1.1621096543
1.1572619887
1.1583584128
1.1619039027
1.1587812872
1.1566851942
1.1569912095
1.1580531638
1.1613869782
1.1613028934
1.1586241981
1.1585225390
1.1606909587
1.1569533011
1.1583176316
1.1607741082
1.1579925393
1.1585372604
1.1585802372
1.1610751444
1.1589279320
1.1575820163
1.1621732568
1.1617713834
1.1616688900
1.1564804319
1.1566600360
1.1573666652
1.1616396842
1.1575879853
1.1585061560
1.1621763255
1.1610013332
1.1591733629
1.1566001295
1.1589000856
1.1589449540
1.1592843931
1.1579976322
1.1596347138
1.1650043137
1.1654606784
1.1638247570
1.1590064756
1.1654561071
1.1606045924
1.1565604286
1.1593922653
1.1569406434
1.1589971917
1.1593374826
1.1577063366
1.1596936933
1.1591298022
1.1586213735
1.1596229844
1.1575504960
1.1582898169
1.1627368235
1.1572232184
1.1627851982
1.1591599524
1.1564334155
1.1586095387
1.1582958988
1.1591595660
1.1583361123
1.1595713835
1.1647931148
1.1651874575
1.1653366618
1.1591078748
1.1647091377
1.1596318220
1.1568492937
1.1594758811
1.1568498307
1.1605946098
1.1591470703
1.1588534441
1.1596772680
1.1588456615
1.1571966609
1.1579343677
1.1616749753
1.1576192324
1.1564852575
1.1582189290
1.1585625808
1.1590165495
1.1570603754
1.1567165678
1.1570487513
1.1574672695
1.1614008825
1.1588274211
1.1578727286
1.1589224359
1.1588257260
1.1575890004
1.1602288003
1.1583253194
1.1568375343
1.1567392367
1.1570018790
1.1567471904
1.1572474768
1.1618924465
1.1586880819
1.1586340597
1.1579668427
1.1582979884
1.1583255734
1.1579578203
1.1590823861
1.1617267944
1.1564342802
1.1583581285
1.1578791518
1.1565242113
1.1568954893
1.1584210564
1.1584305915
1.1570009963
1.1574763393
1.1584108308
1.1578920844
1.1585977023
1.1584103407
1.1619014276
1.1567155181
1.1572617312
1.1577276649
1.1585077388
1.1565270014
1.1583363960
1.1587729587
1.1582132911
1.1590657906
1.1571471085
1.1566209877
1.1569221383
1.1576662428
1.1617366506
1.1586768892
1.1580275294
1.1588499164
1.1574978121
1.1608895522
1.1583596056
1.1572066098
1.1571375371
1.1571375081
1.1573123278
1.1621709466
1.1586348508
1.1586377601
1.1582920885
1.1582486621
1.1578295920
1.1590644628
1.1616373939
1.1565546987
1.1571065654
1.1581523647
1.1586553242
1.1567473561
1.1583502647
1.1584696485
1.1571349070
1.1572991603
1.1583307437
1.1575874601
1.1585060391
1.1584145706
1.1618273187
1.1572105635
1.1569527443
1.1578346430
1.1616714921
1.1593696905
1.1583801426
1.1584717551
1.1591085000
1.1594631964
1.1650735614
1.1585838069
1.1647091820
1.1577296124
1.1575974460
1.1571408118
1.1583252901
1.1585017246
1.1624464564
1.1654600126
1.1623734312
1.1593411047
1.1637840359
1.1602328529
1.1584909612
1.1590453924
1.1656482937
1.1580912987
1.1583827917
1.1610016401
1.1644889792
1.1582337043
1.1582338596
1.1584579007
1.1566019474
1.1579195060
1.1584256615
1.1608949073
1.1596846092
1.1623088818
1.1644618286
1.1563605240
1.1578658790
1.1656586408
1.1659664310
1.1569878085
1.1660925986
1.1580582119
1.1621236218
1.1593705158
1.1584457303
1.1584194172
1.1591897910
1.1645985182
1.1582737019
1.1653365655
1.1575979230
1.1568072009
1.1596847448
1.1584523852
1.1624018871
1.1651866268
1.1627179303
1.1592847702
1.1638286353
1.1610279343
1.1585116379
1.1588433635
1.1656581598
1.1581984013
1.1582675757
1.1619419761
1.1638247241
1.1596320256
1.1620656750
1.1593495617
1.1566011745
1.1575313195
1.1583794619
1.1627370582
1.1622308009
1.1647920919
1.1643526926
1.1565501580
1.1579035207
1.1646049550
1.1656485955
1.1576439486
1.1578583829
1.1595053358
1.1624444210
1.1602332905
1.1575890054
1.1623066451
1.1578725297
1.1573763677
1.1565509200
1.1634156161
1.1569284686
1.1680262521
1.1633796591
1.1660219356
1.1585035713
1.1600648704
1.1570663392
1.1667311961
1.1576448368
1.1614022924
1.1570663215
1.1573659613
1.1572474908
1.1657978066
1.1586884538
1.1586284656
1.1578236938
1.1564806206
1.1585043242
1.1637148348
1.1618754227
1.1582187432
1.1585373745
1.1583739361
1.1674838861
1.1564853341
1.1630510777
1.1574672288
1.1574165046
1.1576304387
1.1589866190
1.1584792366
1.1566235734
1.1691797090
1.1588347794
1.1583815428
1.1566598033
1.1580615035
1.1583943075
1.1574979419
1.1669571576
1.1580610746
1.1583852655
1.1616715160
1.1608834182
1.1575665973
1.1630589259
1.1623720504
1.1583761845
1.1610322633
1.1623996046
1.1610282530
1.1580832931
1.1622285701
1.1576660956
1.1576304589
1.1574925382
1.1569886256
1.1622124403
1.1569700395
1.1670715028
1.1632823465
1.1647734107
1.1610169345
1.1678212210
1.1584586467
1.1634849181
1.1566634030
1.1572358479
1.1573235176
1.1679405935
1.1584430814
1.1581815336
1.1584119512
1.1659947109
1.1625708044
1.1580615929
1.1591644380
1.1687635578
1.1634190059
1.1573123144
1.1583935868
1.1580832758
1.1585290419
1.1569972060
1.1685345029
1.1583363579
1.1584391926
1.1582203666
1.1687092621
1.1581511191
1.1584105637
1.1621230416
1.1600037975
1.1577266503
1.1633315792
1.1627161741
1.1587725896
1.1593501262