<VTKFile type="UnstructuredGrid" version="0.1">
	<UnstructuredGrid>
		<Piece NumberOfPoints="1862" NumberOfCells="3498">
			<CellData>
				<DataArray type="Int32" Name="type" NumberOfComponents="1" Format="ascii">
0
0
0
0
0
0
0
0
0
0
0
0
0
0
0
0
1
0
0
1
0
0
0
0
0
0
0
0
0
0
0
0
0
1
0
0
0
0
0
0
0
0
0
0
0
0
0
0
0
0
1
0
0
0
0
0
0
0
0
0
0
1
0
0
0
0
0
0
0
0
0
0
0
0
0
0
0
0
0
0
0
0
0
0
0
0
0
0
0
0
0
0
0
0
0
0
0
0
0
0
0
0
0
0
0
0
0
0
0
0
0
0
0
0
0
0
0
0
0
0
0
0
0
1
0
0
0
0
0
0
0
0
0
0
0
0
0
0
0
0
0
0
0
0
0
0
0
0
0
0
0
1
0
1
1
0
0
0
0
0
0
0
0
0
0
0
0
0
1
0
1
0
0
0
0
1
0
0
0
0
0
0
0
0
1
1
0
0
0
0
0
1
0
0
0
0
0
0
0
0
1
0
0
0
0
0
0
0
0
0
0
0
0
0
0
0
0
0
0
0
0
0
0
0
0
0
0
0
0
0
0
0
0
1
0
0
0
0
0
0
0
0
0
0
0
0
0
0
0
0
0
0
0
0
0
0
0
0
0
0
0
0
0
0
0
0
0
0
0
0
0
0
0
0
0
0
0
0
0
0
0
1
0
0
0
0
0
0
0
0
0
0
0
0
0
0
0
0
0
0
0
0
0
0
0
0
0
0
0
0
0
0
0
0
0
0
0
0
0
0
0
0
0
0
0
0
0
0
0
0
0
0
1
0
0
0
0
0
0
0
0
0
0
0
0
0
0
0
0
0
0
0
0
0
0
0
0
0
0
0
0
0
0
0
0
0
0
0
0
0
0
0
0
0
0
0
0
0
0
0
0
0
0
0
0
0
0
0
0
0
1
0
0
0
0
0
0
0
0
0
0
0
0
0
0
0
0
0
0
0
0
0
0
0
0
0
0
0
0
0
0
0
0
0
0
0
0
0
0
0
0
0
0
0
0
0
0
0
0
0
0
0
0
0
0
0
0
0
0
0
0
0
0
0
0
0
0
0
0
0
0
0
0
0
0
0
0
0
0
0
0
0
0
0
0
0
0
0
0
0
0
0
0
0
0
0
0
0
0
0
0
0
0
0
0
0
0
0
0
0
0
0
0
0
0
0
0
0
0
0
0
0
0
0
0
0
0
0
0
0
0
0
0
1
0
0
0
0
0
0
0
0
0
0
0
0
0
0
0
0
0
0
0
1
0
0
0
0
0
0
0
0
0
0
0
0
0
0
0
0
0
0
0
0
0
0
0
0
0
0
0
0
0
0
0
0
0
0
0
0
0
0
0
0
0
0
0
0
0
0
0
0
0
0
0
0
0
1
0
0
0
0
0
0
0
0
0
0
0
0
0
0
0
0
0
0
0
0
0
0
0
1
0
0
0
0
0
0
0
0
0
0
0
0
0
0
0
0
0
0
0
1
0
0
0
1
0
0
0
0
0
0
0
0
0
0
0
0
0
0
0
0
0
0
0
0
0
0
0
0
0
1
0
0
0
0
0
0
0
1
0
0
0
0
0
0
0
0
0
0
0
0
0
0
0
0
0
0
0
0
0
0
0
0
0
0
1
0
0
0
0
0
0
0
1
0
0
0
0
0
0
1
0
0
0
0
0
0
0
0
0
0
0
0
0
0
0
0
0
0
0
0
0
0
0
0
0
0
0
0
0
0
0
0
0
0
0
0
0
0
1
0
0
0
0
0
1
0
0
0
0
0
0
0
1
0
0
0
0
0
0
0
0
0
0
0
0
0
1
0
0
0
0
0
0
0
0
0
0
0
0
0
0
0
0
0
0
0
0
0
0
0
0
0
0
0
0
0
0
0
0
0
0
0
0
0
0
0
0
0
0
0
0
0
0
0
0
0
0
0
0
0
1
0
0
0
0
0
0
0
0
0
0
0
0
0
0
0
0
0
0
0
1
0
0
0
0
0
0
0
0
0
1
0
0
0
0
0
0
0
0
0
0
0
0
0
0
0
0
0
0
0
0
0
0
0
0
0
0
0
0
0
1
0
1
0
0
0
0
0
0
0
0
0
0
0
0
0
0
0
0
0
0
0
0
0
0
0
0
0
0
0
1
0
0
0
1
0
0
0
0
0
0
0
0
0
0
0
0
0
0
0
0
0
0
0
0
0
0
0
0
0
0
0
0
1
0
0
0
0
0
0
0
0
0
0
0
0
0
0
0
0
0
0
0
0
0
0
0
0
0
1
0
0
0
0
0
0
0
0
0
0
0
0
0
0
0
0
0
0
0
0
0
0
0
1
0
0
0
0
0
0
1
0
0
0
0
0
0
0
0
0
0
0
1
0
0
0
0
0
0
0
0
0
0
0
0
0
0
0
0
0
0
0
0
1
0
0
0
0
0
0
0
0
0
0
0
1
0
0
0
0
0
0
0
0
0
0
0
0
0
0
0
0
0
0
0
0
0
1
0
0
0
0
0
0
0
0
0
1
1
0
1
0
1
0
0
0
0
0
0
0
0
0
0
0
1
0
0
0
0
0
1
1
0
0
0
0
0
0
1
0
0
0
0
0
1
1
1
0
0
0
0
0
0
0
0
0
0
0
0
1
1
0
0
1
0
0
0
0
0
1
0
0
0
1
0
1
0
0
0
0
0
0
0
1
0
0
0
0
0
0
0
1
0
0
1
0
0
0
0
0
0
0
0
0
0
0
0
0
0
0
1
0
0
0
0
0
0
0
0
0
0
0
0
0
0
0
0
0
0
0
0
0
0
0
0
0
0
0
0
0
0
0
0
0
0
0
0
1
0
0
0
0
0
0
1
0
0
0
1
0
0
0
0
0
0
0
0
0
0
0
1
0
0
0
0
0
0
0
0
0
0
0
0
0
0
0
0
0
0
0
0
0
0
0
0
0
0
0
0
0
0
0
0
0
0
0
0
0
0
0
0
1
1
0
0
0
0
0
0
0
0
0
0
0
0
0
1
0
0
0
0
0
0
0
0
0
0
0
0
0
0
0
0
0
0
0
0
0
0
0
0
0
0
0
0
0
0
0
0
0
0
0
0
0
0
0
0
0
0
0
0
0
0
0
0
0
0
0
0
0
0
0
0
0
0
0
0
0
0
0
0
0
0
0
0
0
0
0
0
1
1
0
0
0
0
0
0
0
0
1
0
0
0
0
0
0
0
0
0
0
0
0
0
0
0
0
0
0
0
0
0
0
0
1
0
0
0
0
0
0
0
0
0
0
0
0
0
0
0
0
1
0
0
0
0
0
0
0
0
0
0
0
0
0
0
0
0
0
0
0
0
0
0
0
0
0
0
0
0
0
0
0
0
0
0
0
0
0
0
0
0
0
0
0
0
0
0
0
0
0
0
0
0
0
0
0
0
0
0
0
0
0
0
0
0
0
0
0
0
0
0
0
0
0
0
0
0
0
0
0
0
0
0
0
0
0
0
0
0
0
0
1
1
0
0
0
0
0
1
0
0
0
0
0
0
0
0
0
0
0
0
1
0
0
0
0
0
0
0
0
0
0
0
0
0
0
0
0
0
0
0
0
0
0
0
0
0
0
0
0
0
0
0
0
0
0
0
0
0
0
0
0
0
0
0
0
0
0
0
0
0
0
0
0
0
1
0
1
0
0
0
0
0
0
0
0
0
0
0
0
0
0
0
0
0
0
1
0
0
0
0
0
0
0
0
0
0
0
0
0
0
0
0
0
0
0
0
0
0
0
0
0
0
0
0
0
0
0
0
0
0
0
0
0
0
0
0
0
0
0
0
0
0
0
0
0
0
0
0
0
0
0
0
0
0
0
0
0
0
0
0
0
0
0
0
0
0
1
0
0
0
0
0
0
0
0
0
0
1
0
0
0
0
0
0
0
0
0
0
0
0
0
0
0
0
0
0
0
0
0
0
0
0
0
0
0
0
0
0
0
0
0
0
0
0
0
1
0
0
0
0
0
0
0
0
0
0
0
0
0
0
0
0
0
0
0
0
0
0
0
0
0
0
0
0
0
0
0
0
0
0
0
0
0
0
0
0
0
0
0
0
0
0
0
0
0
0
0
0
0
0
0
0
0
0
0
0
0
0
0
0
0
0
0
0
0
0
0
0
0
0
0
0
0
0
0
0
0
1
0
0
0
0
0
0
0
0
0
0
0
0
0
0
0
0
0
0
0
0
0
0
0
0
0
0
0
0
0
0
0
0
0
0
0
0
0
0
0
0
0
0
0
0
0
0
0
0
0
0
0
0
0
0
0
0
0
0
0
0
0
0
0
0
0
0
0
0
0
0
0
0
0
0
0
0
0
0
0
0
0
0
0
0
0
0
0
0
0
0
0
0
0
0
0
0
0
0
0
0
0
0
0
0
0
0
0
0
0
0
0
0
0
0
0
0
0
0
0
0
0
0
0
1
0
0
0
0
0
0
0
0
0
0
0
0
0
0
0
0
0
0
0
0
0
0
0
0
0
0
0
0
0
0
0
0
0
0
0
0
0
0
0
0
0
0
0
0
0
0
0
0
0
0
0
0
0
0
0
0
0
0
0
0
0
0
0
0
0
0
0
0
0
0
0
0
0
0
0
0
0
0
0
0
0
1
0
0
0
0
0
0
0
1
0
0
0
0
0
0
0
0
0
0
0
0
0
0
0
0
0
0
0
0
0
0
0
0
0
0
0
0
0
0
0
0
0
0
0
0
0
1
0
0
0
0
0
0
0
0
0
0
0
0
0
0
0
0
0
0
0
0
0
1
0
0
0
0
0
0
0
0
0
0
0
0
1
1
0
0
0
0
0
0
0
0
0
0
0
0
0
0
0
1
1
0
1
0
0
0
0
0
0
0
0
0
1
0
0
0
0
0
0
1
0
0
0
0
0
0
0
0
0
0
1
0
0
0
0
1
0
1
0
0
0
0
0
0
0
1
0
0
0
1
0
0
0
1
0
1
1
0
0
1
1
0
0
0
1
0
0
0
1
0
0
0
0
0
0
0
0
0
1
0
0
0
0
0
0
1
0
0
0
0
0
0
0
0
0
0
0
0
0
0
0
0
0
0
0
0
0
0
0
0
0
0
0
1
0
0
1
0
0
0
0
0
0
0
0
0
0
0
0
0
0
0
0
0
0
1
0
0
1
0
0
0
0
0
0
0
0
0
0
0
1
0
0
1
0
0
0
0
0
0
0
0
0
0
0
1
1
0
0
0
0
0
0
0
0
0
0
0
0
1
0
0
0
0
0
0
0
0
0
0
0
0
0
0
0
0
0
1
0
0
0
0
0
0
0
0
0
0
0
0
0
0
0
0
0
1
0
0
0
0
0
0
0
0
0
0
0
0
0
0
0
0
0
0
0
0
0
0
0
0
0
0
0
0
0
0
0
0
0
0
0
0
0
0
0
0
1
0
0
0
0
0
0
0
0
0
0
0
0
0
0
0
0
0
0
0
0
0
0
0
0
0
0
0
0
0
0
0
0
0
0
0
0
0
0
0
0
0
0
0
0
0
1
0
0
0
0
0
0
0
0
0
0
0
0
0
0
0
0
0
0
0
0
0
0
0
0
0
0
0
0
0
0
0
0
0
0
0
0
0
0
0
0
0
0
0
0
0
0
0
1
0
0
0
0
0
0
0
0
0
0
1
0
0
0
0
0
0
0
0
0
0
0
0
0
0
0
1
0
0
1
0
0
0
0
0
0
0
0
0
0
0
0
0
0
0
0
0
0
0
0
0
0
0
1
0
0
0
0
0
0
0
0
0
0
0
0
0
0
0
0
0
0
0
0
0
0
0
0
0
0
0
0
0
0
0
0
0
0
0
1
0
0
0
0
0
0
0
0
0
0
0
0
0
0
0
0
0
0
0
0
0
0
0
0
0
0
0
0
0
0
0
0
0
0
0
0
0
0
0
0
0
0
0
0
0
0
0
0
0
0
0
0
0
0
0
0
0
0
0
0
0
0
0
0
0
0
0
0
0
0
0
0
0
0
0
0
1
0
0
0
0
0
0
0
0
0
0
0
0
0
0
0
0
0
0
0
0
0
0
0
0
0
0
0
0
0
0
0
0
0
0
0
0
0
0
0
1
0
0
0
0
0
0
0
0
0
0
0
0
1
1
0
0
0
0
0
0
0
0
0
0
0
0
0
0
0
0
0
0
0
0
0
0
0
0
0
0
0
0
0
0
0
0
0
0
0
0
0
0
0
0
0
0
0
0
0
0
0
0
0
0
0
0
0
0
0
0
0
0
0
0
0
0
0
0
0
0
0
0
0
0
0
0
0
0
0
0
0
0
0
0
0
0
0
0
0
0
0
0
0
0
0
0
0
0
0
0
0
0
0
0
0
1
0
1
0
0
0
0
0
0
0
1
1
1
1
0
0
0
0
0
0
0
0
0
0
0
0
0
0
0
0
0
0
0
0
0
0
0
0
0
0
0
0
1
1
0
0
0
0
0
0
0
0
0
0
0
0
0
0
0
0
0
0
1
0
0
0
0
0
0
0
1
1
0
1
1
0
0
1
0
0
0
0
0
0
0
1
0
1
0
0
0
0
0
0
0
0
0
0
0
0
0
0
0
0
0
0
0
0
0
0
0
0
0
0
0
1
1
0
0
0
1
1
0
0
0
0
1
0
0
1
0
1
0
0
0
0
0
1
0
0
0
1
0
0
0
0
0
0
0
0
0
0
0
0
0
0
0
0
0
0
0
0
0
0
0
0
0
0
0
1
0
0
0
0
0
0
1
0
0
0
0
0
0
0
0
0
0
0
0
0
0
0
0
0
0
0
0
0
0
0
0
0
0
0
0
0
1
0
1
0
0
0
0
0
0
0
1
0
0
0
0
0
0
0
0
0
0
0
1
0
0
0
0
0
0
0
0
0
1
0
0
0
0
0
0
0
1
0
0
0
0
0
0
0
1
0
0
0
0
0
0
0
0
0
0
0
0
0
0
0
0
0
0
0
1
0
1
0
0
0
0
0
1
0
0
0
0
0
0
0
0
0
0
0
0
0
0
0
0
0
0
0
0
0
0
0
0
0
1
0
1
0
0
0
0
0
0
0
0
0
1
0
0
0
0
0
1
0
0
0
0
0
0
0
0
0
0
0
0
0
0
0
1
0
0
0
0
0
0
0
0
1
0
0
0
0
0
0
0
0
0
0
0
0
0
0
0
0
0
0
0
0
0
0
0
0
0
0
0
0
0
0
1
0
0
0
0
0
0
0
0
0
0
0
0
0
0
0
0
1
0
0
0
0
0
0
0
0
1
0
0
0
0
0
0
0
0
0
1
0
0
0
0
0
1
0
0
0
0
0
0
0
0
0
0
0
0
0
0
0
0
0
0
0
1
0
0
0
0
0
0
1
0
0
0
0
0
0
0
0
1
0
0
0
0
0
0
0
0
0
0
0
0
0
0
1
0
0
1
0
0
0
1
0
0
0
0
0
0
0
0
0
0
0
0
0
0
0
0
1
0
0
0
0
0
0
0
0
0
0
1
0
1
0
0
0
0
0
0
1
0
0
0
0
0
0
0
0
0
0
0
0
0
0
0
0
0
0
0
0
0
0
0
0
0
0
0
1
1
0
0
0
0
0
0
1
0
0
0
0
0
0
0
0
0
0
0
0
0
1
0
0
0
0
0
0
0
1
0
0
0
0
0
0
0
0
0
0
0
0
0
0
0
0
0
0
0
0
0
0
0
0
0
0
0
1
0
0
0
0
0
0
0
0
0
0
1
0
0
1
0
0
0
0
0
0
0
0
0
0
0
0
0
0
0
0
0
0
0
0
0
0
0
0
0
0
0
0
0
1
0
0
0
0
0
0
0
1
0
0
0
0
0
0
0
1
0
0
0
0
1
0
0
0
0
0
0
0
0
0
0
0
1
0
1
0
0
0
1
0
				</DataArray>
				<DataArray type="Float64" Name="h" NumberOfComponents="1" Format="ascii">
1.2158214283
1.2158352348
1.2119813599
1.2147473523
1.2118006998
1.2128154681
1.2134702212
1.2170523678
1.2147233377
1.2205005735
1.2162412864
1.2129834175
1.2175693048
1.2175502727
1.2171421163
1.2206525920
1.2136155375
1.2198633095
1.2164163426
1.2161086272
1.2109733068
1.2170871003
1.2140594608
1.2108439740
1.2149968169
1.2225814507
1.2149960364
1.2114211672
1.2123848443
1.2189312516
1.2175505763
1.2135294300
1.2176431961
1.2120128005
1.2086050007
1.2108193278
1.2096096207
1.2136882280
1.2118128482
1.2105141132
1.2118463451
1.2105082205
1.2145820798
1.2123495044
1.2103535229
1.2112088185
1.2131244059
1.2088502298
1.2130764544
1.2137730649
1.2105600341
1.2111078277
1.2118385835
1.2105836972
1.2099940560
1.2136578666
1.2109279029
1.2081769780
1.2087534720
1.2095528737
1.2079862581
1.2079804915
1.2119957073
1.2106040378
1.2116425950
1.2115584614
1.2144142819
1.2126613115
1.2081667268
1.2081722287
1.2083472727
1.2096487405
1.2130341791
1.2105647684
1.2093774020
1.2121838182
1.2085713452
1.2086498819
1.2080485842
1.2121418529
1.2080664440
1.2116446405
1.2137713468
1.2132900635
1.2117035495
1.2127908555
1.2084249078
1.2138595219
1.2093833043
1.2147554516
1.2091840399
1.2122249073
1.2082904595
1.2156246469
1.2129102398
1.2125064483
1.2146348866
1.2118937440
1.2117129661
1.2086824647
1.2136922032
1.2083505160
1.2126449627
1.2083752310
1.2245799484
1.2151506068
1.2142503481
1.2133110117
1.2090223694
1.2123929585
1.2153458620
1.2145799083
1.2093524857
1.2102569629
1.2120744000
1.2094590349
1.2120425700
1.2224268861
1.2104404925
1.2114863980
1.2236921908
1.2139305793
1.2135172184
1.2252094650
1.2102401028
1.2123513228
1.2114004447
1.2270241535
1.2089439298
1.2102652055
1.2093936131
1.2138472834
1.2107857392
1.2089626562
1.2220351190
1.2098857118
1.2255586872
1.2090409098
1.2085829940
1.2192462013
1.2288861287
1.2233655842
1.2090101605
1.2162524365
1.2135026504
1.2088682686
1.2225168122
1.2101256675
1.2251560071
1.2094021631
1.2265814475
1.2087720114
1.2087439293
1.2083084201
1.2082839104
1.2095746661
1.2089616751
1.2265625790
1.2089327241
1.2315195486
1.2173490463
1.2095962856
1.2236042005
1.2294450441
1.2272316179
1.2106840531
1.2137159968
1.2206065440
1.2275500790
1.2090983942
1.2089752660
1.2303668070
1.2085044499
1.2278672696
1.2122575470
1.2080295609
1.2144667208
1.2116142673
1.2084307312
1.2303308478
1.2101461431
1.2109816431
1.2323590062
1.2145467322
1.2314965025
1.2315501007
1.2119841137
1.2085176287
1.2286228713
1.2324935474
1.2106609601
1.2086000557
1.2332393727
1.2111697187
1.2081214947
1.2117574758
1.2305626670
1.2113181976
1.2112013257
1.2094150222
1.2327562749
1.2155543528
1.2319609466
1.2088083052
1.2130032485
1.2343239698
1.2209379983
1.2274704966
1.2122390402
1.2142862132
1.2097009830
1.2323711657
1.2321216806
1.2356386108
1.2244187202
1.2103246570
1.2174453323
1.2326327595
1.2102162392
1.2340496860
1.2142120401
1.2170753199
1.2117823335
1.2183112189
1.2170657402
1.2115557622
1.2151216930
1.2183770746
1.2155653466
1.2161703129
1.2098647279
1.2178034922
1.2179370895
1.2103323621
1.2127679914
1.2184696702
1.2092180837
1.2185953284
1.2351885006
1.2113811187
1.2075582270
1.2261401413
1.2340001217
1.2121864625
1.2256721149
1.2186532429
1.2339760218
1.2090345174
1.2225265795
1.2319615937
1.2147513116
1.2075309490
1.2316870121
1.2106316358
1.2090168927
1.2354112205
1.2151573290
1.2222787184
1.2356322549
1.2188364044
1.2088707418
1.2187174389
1.2206623986
1.2208483943
1.2181178460
1.2139005422
1.2138175005
1.2148643837
1.2111093977
1.2198242222
1.2178633660
1.2100654778
1.2173675429
1.2190033085
1.2191421724
1.2165863373
1.2199988090
1.2208952826
1.2204794951
1.2168874342
1.2163438845
1.2123184755
1.2125557391
1.2152562068
1.2189414174
1.2182123073
1.2187228985
1.2151281121
1.2333290767
1.2330059677
1.2158151353
1.2072097662
1.2238379670
1.2238880625
1.2071952768
1.2047252880
1.2088603987
1.2196112398
1.2305930391
1.2354048286
1.2345240563
1.2199229796
1.2062586721
1.2073596952
1.2096371654
1.2108266783
1.2038334916
1.2119814118
1.2306784196
1.2204909963
1.2214757024
1.2231381756
1.2134070058
1.2155440559
1.2208724199
1.2214671237
1.2047293416
1.2201995612
1.2165556581
1.2068517645
1.2236003096
1.2200252260
1.2227698604
1.2166037019
1.2221922863
1.2210035595
1.2235537383
1.2150817409
1.2216281052
1.2209747042
1.2191908547
1.2181426454
1.2148516506
1.2177297000
1.2233348867
1.2182969769
1.2219385937
1.2117228072
1.2266591998
1.2014703011
1.2013969995
1.2042146526
1.2320033992
1.2046933040
1.2203587076
1.2101967090
1.2210255923
1.2312484410
1.2312931835
1.2301846907
1.2053732157
1.2336475853
1.2164096482
1.2289192514
1.2319672116
1.2053412181
1.2352132485
1.1991585807
1.2074704165
1.2356052583
1.2330322278
1.2303181490
1.2345175073
1.2026065762
1.2084567296
1.2153859999
1.2233523768
1.2308483729
1.2329744740
1.2329079768
1.2366697587
1.2357076177
1.2283687221
1.2196690991
1.2243076913
1.2265298775
1.2196407779
1.2132176868
1.2240890939
1.2224910952
1.2164524907
1.2232249938
1.2161992643
1.1992462469
1.2258730449
1.2024742722
1.2221071801
1.2241225411
1.2257730558
1.1678624539
1.2178326319
1.2191823536
1.2243869154
1.2159771634
1.2213372342
1.2263520724
1.2076491489
1.1854059004
1.1768807569
1.1902910637
1.2245683136
1.2222648467
1.1787576763
1.2239149273
1.2033742555
1.2180202298
1.2251120959
1.2198978112
1.2234259937
1.1704222675
1.2263682433
1.2274053657
1.2302301812
1.2336006908
1.2060613998
1.2300011119
1.2288802298
1.1981075351
1.2334800495
1.2271124457
1.2271985949
1.2176241432
1.2168667115
1.2323053189
1.2321279829
1.2303704287
1.2247574313
1.2298470620
1.2363398979
1.2018773236
1.2319430219
1.2340886526
1.2368308875
1.2348063961
1.2361728676
1.2335006566
1.2421337467
1.2296983002
1.2264044926
1.2313440472
1.2370988109
1.2426853998
1.2114508757
1.2417582865
1.2374843723
1.2013665996
1.2288659379
1.2415653950
1.2304641683
1.2395423733
1.2399280279
1.2228403873
1.2329013805
1.2243086378
1.1982494941
1.2176245534
1.2379012179
1.2382278387
1.2393432826
1.2390812275
1.2261892136
1.2075147842
1.1986562889
1.2193790244
1.1969421927
1.2273264564
1.2298807068
1.2244414503
1.2024779193
1.2111826939
1.2229350905
1.1906853324
1.2264067691
1.1936633762
1.2178633575
1.2269248089
1.2427831801
1.1663269379
1.2266660557
1.2093465592
1.2024013528
1.2073110643
1.2048133607
1.2212773879
1.2474918911
1.2444960602
1.2255141399
1.1942837239
1.2273154388
1.1762989014
1.2426317465
1.2218447183
1.2448579483
1.2222868666
1.2076455441
1.1704499471
1.1936226185
1.2466483093
1.2270153222
1.1937047484
1.2474850200
1.2452889853
1.1635672066
1.1768785000
1.1902902850
1.1906141261
1.2260353279
1.2303934036
1.2158169563
1.2456326652
1.1942869591
1.1995187019
1.2452116987
1.1906836482
1.2359080981
1.2266589377
1.2428314147
1.2348218839
1.2247568868
1.1856733154
1.1995201594
1.2385139702
1.2402689588
1.2284911969
1.1950636706
1.2425586456
1.1885403859
1.2423026471
1.2277281732
1.1954135244
1.2398459224
1.1986534682
1.2397797184
1.2089595506
1.2111769481
1.1991968320
1.2222793445
1.1936205547
1.2303871446
1.2277282066
1.2073140835
1.1853574836
1.1632659902
1.2283612176
1.1644704392
1.1892239834
1.1987727733
1.1936632335
1.1729720248
1.1695676960
1.2377427574
1.1608666304
1.2019909955
1.2231118805
1.2205198052
1.2315424209
1.2044275593
1.1771553505
1.2390117519
1.2371733478
1.1887459868
1.1847238768
1.2382298905
1.2048092249
1.2122732106
1.2296972649
1.1906129241
1.2298805902
1.2466145955
1.2228515454
1.1853891640
1.2440361318
1.2454197932
1.2448033210
1.2271176394
1.2196592044
1.2200773260
1.2414548082
1.2452127419
1.1852539334
1.1794548161
1.2304590195
1.2474858633
1.1798358490
1.2439276280
1.2009168611
1.2264138487
1.2302257827
1.2288692808
1.1686361280
1.2247689362
1.2035318544
1.1662865671
1.2149732726
1.1653160978
1.2243142221
1.1951114292
1.2240268232
1.2444737846
1.1752155457
1.2162864029
1.1789543328
1.2437731917
1.1851954460
1.2303668721
1.1639679816
1.1825703569
1.2465322908
1.2288830278
1.1653496693
1.1727944888
1.2083218974
1.2467678059
1.1721444997
1.2414550204
1.1928377698
1.2475648046
1.2089549123
1.1853878623
1.1954144656
1.1950607942
1.2360822506
1.2377166850
1.2145742737
1.2247506389
1.1770465919
1.1669385026
1.2505446756
1.2205134309
1.1677229968
1.1825700771
1.1682921115
1.1686233787
1.2044293103
1.1856712768
1.1887458077
1.2019873997
1.2499971728
1.2505506444
1.2489595626
1.2461958064
1.2283557174
1.1760876070
1.1937498256
1.1891687433
1.2432114476
1.2468261548
1.2231118241
1.1661954694
1.2460962187
1.1657057983
1.1754642095
1.2164742123
1.1951046625
1.1622848574
1.1797847335
1.2004294460
1.1892215279
1.2494496963
1.1797560145
1.2217997221
1.2032039079
1.2484153342
1.2503577610
1.2503501858
1.2486720627
1.1616512740
1.1752653887
1.2103381709
1.1867980615
1.2486241274
1.2491717731
1.1991964387
1.1714146588
1.1905966026
1.1682758970
1.2506654417
1.1687459638
1.1676089916
1.2533293426
1.2526570576
1.1674333603
1.1631239341
1.2514618920
1.1623049948
1.1665987295
1.1678828491
1.2523826625
1.2527084380
1.2529419958
1.1615939646
1.1649145573
1.1656331824
1.1700124036
1.1687436712
1.2520316328
1.2530525550
1.2493061583
1.2507970129
1.1603072881
1.2538856273
1.2546556881
1.1687567399
1.2505496619
1.2495493711
1.1653486533
1.2552058512
1.1608653478
1.2521006450
1.1756840764
1.1679575583
1.2551062951
1.1721431781
1.2539326635
1.2515094980
1.1847212550
1.2498954559
1.1835100394
1.1779220990
1.2491358080
1.2478781861
1.2030675432
1.2143494659
1.2138621635
1.2138714150
1.2143620711
1.2142642298
1.2129832443
1.2162369574
1.2158384849
1.2124236011
1.2128102758
1.2118052848
1.2124326689
1.2147297518
1.2171333846
1.2134651968
1.2188436589
1.2158459420
1.2142676535
1.2186675097
1.2198580899
1.2147518756
1.2119833212
1.2164009088
1.2189289263
1.2200336189
1.2127790290
1.2170593249
1.2225820337
1.2149950561
1.2205047346
1.2185433340
1.2175819589
1.2114703403
1.2189606250
1.2151595422
1.2188482350
1.2175504180
1.2186776207
1.2120140216
1.2176302737
1.2135147060
1.2160252010
1.2105130397
1.2115113778
1.2136141646
1.2206592420
1.2145672229
1.2118069013
1.2127778122
1.2200398976
1.2118382833
1.2175531935
1.2161094587
1.2114715194
1.2140765129
1.2089972435
1.2171010945
1.2099023356
1.2185565194
1.2109728598
1.2151774631
1.2158398435
1.2111200466
1.2088502828
1.2189692912
1.2103505947
1.2105596441
1.2131083548
1.2114274845
1.2108471809
1.2123973405
1.2109215036
1.2119801522
1.2150092875
1.2091565594
1.2215068514
1.2115125227
1.2101177916
1.2088501038
1.2160378077
1.2118273902
1.2089977877
1.2140406197
1.2118154351
1.2158564569
1.2099030396
1.2096095136
1.2111291169
1.2108251294
1.2116322948
1.2137018725
1.2088103461
1.2086049579
1.2119864597
1.2126465642
1.2107385977
1.2096096211
1.2105995349
1.2101215010
1.2085726310
1.2090520886
1.2123636478
1.2105559863
1.2099430592
1.2096471158
1.2130262503
1.2080176775
1.2119672281
1.2123113879
1.2091571111
1.2082018567
1.2088503011
1.2105150129
1.2085706850
1.2083460614
1.2099584910
1.2093721981
1.2119852381
1.2127293490
1.2081663693
1.2092990469
1.2215114633
1.2081719121
1.2096116806
1.2088114541
1.2120426675
1.2107449019
1.2124669531
1.2095130152
1.2147068067
1.2130900577
1.2111163769
1.2118273115
1.2112180050
1.2116387962
1.2132753241
1.2105581978
1.2140571363
1.2137904266
1.2079866684
1.2079809189
1.2127392823
1.2082984412
1.2099657216
1.2087558273
1.2090700195
1.2099473848
1.2116925277
1.2121570586
1.2085731907
1.2092994897
1.2097294249
1.2099979686
1.2083977758
1.2080172543
1.2082030433
1.2136680237
1.2111265415
1.2089749784
1.2119700731
1.2105884698
1.2090538905
1.2095561522
1.2122296741
1.2081769725
1.2123184459
1.2082889881
1.2124804345
1.2083748767
1.2117104973
1.2105619191
1.2116146645
1.2095145037
1.2083495216
1.2154102026
1.2087184641
1.2131679437
1.2115658998
1.2136814384
1.2144312895
1.2081997228
1.2118981251
1.2080692297
1.2125046370
1.2101252324
1.2147250766
1.2086820895
1.2151383408
1.2120466087
1.2127150933
1.2111306993
1.2090192705
1.2145621119
1.2082995094
1.2089786992
1.2093482788
1.2097316726
1.2121749519
1.2163447434
1.2090721067
1.2086517905
1.2121613635
1.2087532261
1.2116849974
1.2153248958
1.2123874743
1.2083984521
1.2087198066
1.2127209930
1.2111449752
1.2080699233
1.2127871467
1.2139216173
1.2100280035
1.2081997499
1.2235521945
1.2101280749
1.2131803464
1.2116981300
1.2121374137
1.2084251311
1.2137808634
1.2080667828
1.2120336540
1.2080482052
1.2154268470
1.2236938813
1.2138691404
1.2116123032
1.2087536063
1.2138466512
1.2159481989
1.2246296089
1.2123423726
1.2093096349
1.2097058278
1.2093873860
1.2129118597
1.2156441176
1.2104402227
1.2147715091
1.2091856107
1.2113363272
1.2079515907
1.2102317893
1.2113906265
1.2163641677
1.2102629541
1.2126536251
1.2115688708
1.2169026622
1.2111522608
1.2235514014
1.2100337230
1.2111317577
1.2220367272
1.2098835459
1.2107782188
1.2245776700
1.2146383034
1.2135061085
1.2162921311
1.2233695112
1.2108606254
1.2246269097
1.2104429211
1.2102620520
1.2133234375
1.2240559894
1.2079514517
1.2097095030
1.2120862218
1.2251607704
1.2159681106
1.2090096071
1.2261692339
1.2094580667
1.2093145293
1.2088686842
1.2113422704
1.2142467359
1.2240283424
1.2126764008
1.2170656390
1.2089967108
1.2115737501
1.2111391769
1.2278994024
1.2086810842
1.2124573777
1.2083589125
1.2114966174
1.2169185484
1.2087716560
1.2224260270
1.2086812030
1.2104440774
1.2207055001
1.2265918430
1.2087438718
1.2082835984
1.2240534597
1.2261639343
1.2206062755
1.2272378228
1.2108703821
1.2089985629
1.2240239266
1.2279748189
1.2099309420
1.2164602759
1.2163075454
1.2252044460
1.2089439079
1.2173428077
1.2255165950
1.2135081393
1.2093941033
1.2203825457
1.2236088991
1.2085462512
1.2095956499
1.2270181310
1.2089320079
1.2083584880
1.2255555024
1.2089627266
1.2089980870
1.2164031331
1.2124646522
1.2093506716
1.2090404235
1.2085038611
1.2191041298
1.2269119934
1.2085831435
1.2207045413
1.2170736216
1.2278878782
1.2089970848
1.2126680789
1.2086807858
1.2090975249
1.2088128766
1.2086810137
1.2089746021
1.2278755110
1.2094034323
1.2323664328
1.2158314395
1.2255120189
1.2279679712
1.2115748985
1.2087924160
1.2087207328
1.2162621174
1.2101274136
1.2225157091
1.2303396821
1.2099330413
1.2203803647
1.2164639641
1.2320718641
1.2288788544
1.2101447321
1.2085459206
1.2144592577
1.2085418324
1.2192527023
1.2089988084
1.2305469421
1.2286291689
1.2095745220
1.2089624094
1.2269007746
1.2163232926
1.2089983612
1.2222288575
1.2191020476
1.2164066897
1.2315019595
1.2093498671
1.2083084919
1.2265547680
1.2088129465
1.2119805154
1.2154402954
1.2081199831
1.2137237024
1.2305395330
1.2115790496
1.2117545934
1.2320632781
1.2087215807
1.2085418610
1.2106314886
1.2314192072
1.2087925160
1.2158328836
1.2296283993
1.2085984378
1.2086898250
1.2294362254
1.2106862220
1.2111709145
1.2107906314
1.2315123860
1.2155633933
1.2082871697
1.2303607260
1.2319670706
1.2122620177
1.2088063327
1.2163209440
1.2275443164
1.2327621160
1.2222246931
1.2112066776
1.2084134041
1.2084323320
1.2297723726
1.2314127162
1.2296214019
1.2323776602
1.2107922060
1.2106341624
1.2327013225
1.2127084060
1.2109813516
1.2086899768
1.2080309849
1.2154357957
1.2340893015
1.2336237521
1.2116177210
1.2321315717
1.2122458747
1.2106571426
1.2098626754
1.2082888478
1.2324875976
1.2084152444
1.2091921652
1.2089805506
1.2145388600
1.2315441606
1.2085193281
1.2142195472
1.2339845475
1.2186535550
1.2295361035
1.2256828440
1.2113130448
1.2336177534
1.2121109884
1.2334698838
1.2121821534
1.2302492119
1.2297616841
1.2092209039
1.2332326531
1.2346934760
1.2127146547
1.2305522784
1.2353865367
1.2222843637
1.2288554999
1.2106349998
1.2151535342
1.2316979177
1.2090354877
1.2340831583
1.2351948212
1.2326928369
1.2105566682
1.2131819910
1.2129989826
1.2091946878
1.2181934902
1.2100635458
1.2089824878
1.2191368684
1.2168972508
1.2125517964
1.2163258069
1.2139754719
1.2187285612
1.2148716797
1.2173469623
1.2094172674
1.2188231159
1.2181271627
1.2111071832
1.2151636392
1.2138928615
1.2190046963
1.2096991865
1.2158165548
1.2292952437
1.2340423308
1.2088583306
1.2072115491
1.2302373205
1.2121072295
1.2295244012
1.2340168885
1.2117859971
1.2238985963
1.2333379787
1.2334625866
1.2142923000
1.2274601401
1.2209372778
1.2343159757
1.2102178149
1.2199290624
1.2306897645
1.2346873411
1.2119797514
1.2062595832
1.2326227402
1.2103206173
1.2096380407
1.2275151802
1.2354637767
1.2174497707
1.2288433183
1.2244131812
1.2353802586
1.2178233023
1.2068510442
1.2132792586
1.2183033406
1.2210146141
1.2216329103
1.2179303959
1.2151766071
1.2127707196
1.2150736562
1.2155578407
1.2103349701
1.2166225716
1.2209637796
1.2191708435
1.2117870082
1.2105595578
1.2161900006
1.2184718971
1.2183241594
1.2155452045
1.2200351755
1.2214851068
1.2214645673
1.2170561493
1.2151352600
1.2139830289
1.2134031794
1.2131800745
1.2115570296
1.2165902582
1.2201821746
1.2179641193
1.2170976144
1.2183728963
1.2117252146
1.2275284012
1.2339915944
1.2340088773
1.2320123311
1.2185936105
1.2075567463
1.2114046937
1.2210351413
1.2117860952
1.2261294266
1.2042143928
1.2046933767
1.2113846289
1.2292829735
1.2164156125
1.2289302592
1.2354574407
1.2348840996
1.2225200124
1.2075314965
1.2084538463
1.2252561774
1.2090146742
1.2275027638
1.2074706295
1.2026074163
1.2147534684
1.2319506056
1.2198959371
1.2208879035
1.2234344364
1.2123219216
1.2165823625
1.2222495956
1.2204903304
1.2024745741
1.2189626792
1.2179824130
1.2195967423
1.2180078847
1.2135162752
1.2088733605
1.2243973467
1.2199877554
1.2239136090
1.2152637722
1.2221107740
1.2206516957
1.2241336664
1.2138208064
1.2132826637
1.2210444860
1.2208493122
1.2198424940
1.2178826241
1.2196245523
1.2161921060
1.2164460501
1.2243136808
1.2187088602
1.2232157204
1.2166364042
1.2299951557
1.2319399479
1.2113722266
1.2334819938
1.2151254399
1.2275163817
1.2284051658
1.2332891650
1.1981086295
1.2331990310
1.2018756105
1.2071964041
1.2358496361
1.2323040077
1.2303677316
1.2329972139
1.2047244889
1.2114105835
1.2168744843
1.2060643169
1.2238276278
1.2274023642
1.2276873229
1.2335009224
1.2298554132
1.2354491913
1.2350999602
1.2247408397
1.2297439468
1.2300669347
1.2075101014
1.2326693844
1.2196045758
1.2305819262
1.2265176509
1.2336136599
1.2013681364
1.2346403225
1.1982498569
1.2108268448
1.2367134079
1.2317576590
1.2284842925
1.2348777702
1.2038331277
1.2073604883
1.2218599625
1.2114561026
1.2252446963
1.2238914391
1.2310713703
1.2323485419
1.2335964217
1.2358152978
1.2343307650
1.2261987959
1.1699875933
1.2212637780
1.2142330971
1.2233351476
1.2078127885
1.2228228695
1.2273243148
1.2181550340
1.2093504210
1.2055700412
1.1826873323
1.2255060732
1.1763012091
1.1806795791
1.2218376544
1.2210621295
1.2177323349
1.1845674000
1.2219540864
1.2111552542
1.2148562836
1.1969432096
1.2270195782
1.2047299901
1.2221844260
1.2235421843
1.1636840410
1.2260364250
1.1635686868
1.2193687267
1.2178548078
1.2235927954
1.2162866452
1.2229209343
1.2273347927
1.2196134678
1.2154149181
1.2112923943
1.1816021698
1.2243393133
1.1730479984
1.1881375577
1.2244375767
1.2208905957
1.2135244199
1.1752163657
1.2227787996
1.2024783462
1.2165631932
1.2264048885
1.2204883127
1.2231269169
1.1663280468
1.2269308481
1.2276398957
1.2414416529
1.2290872771
1.2262306413
1.2348209849
1.2332017176
1.2385122043
1.2414015525
1.2101935775
1.2283364631
1.2418683304
1.2274510990
1.2283294491
1.2344650856
1.2014693569
1.2323515213
1.2271817128
1.2276886135
1.2315410212
1.2191609000
1.2394625499
1.2203499715
1.2308913933
1.2303739831
1.2295750519
1.2390103599
1.2323530572
1.2398449800
1.2230666339
1.2312399834
1.2211830473
1.2351003902
1.2013977960
1.2233542476
1.2271981311
1.2377394632
1.2371704337
1.2315424630
1.2397781361
1.2358152666
1.2358492280
1.2332924375
1.2401279942
1.2247303485
1.2113813659
1.2354505458
1.2326847678
1.2321222707
1.2301887991
1.2409057600
1.2284064410
1.2363395835
1.2247598235
1.2311371526
1.2308504313
1.2364202140
1.2417637203
1.2153801448
1.2284133288
1.2427844904
1.2277801903
1.2381636066
1.2053397529
1.2330314852
1.2285741602
1.2225522180
1.2225518749
1.2406868554
1.2218504987
1.2312971979
1.2319722993
1.2294839369
1.2383535607
1.2389467702
1.2211612139
1.2335901879
1.2248430449
1.2361709444
1.2356051863
1.1991578283
1.2191623409
1.2360783705
1.2367761345
1.2329764590
1.2385140602
1.2341414969
1.2358154649
1.2343328301
1.2405846596
1.2283584582
1.2053777905
1.2346422403
1.2336458967
1.2035264696
1.2178390146
1.2467666617
1.2437712799
1.2243517137
1.1992452707
1.2023975313
1.2263468049
1.1730457549
1.2440354797
1.2293083642
1.2245671019
1.2033738220
1.2444717825
1.2207123873
1.2055664364
1.2154610688
1.2213508571
1.1636379728
1.1941648592
1.2460947158
1.2251194527
1.1906572134
1.2464225361
1.2449906482
1.1699862908
1.1854031396
1.1970683720
1.1970678010
1.1938596206
1.2191890652
1.2263592330
1.2412285748
1.1704210702
1.1940591700
1.2285651502
1.2132135569
1.2200736389
1.2435115242
1.1987992069
1.1852080444
1.2043501488
1.2011030093
1.2453978915
1.2095632286
1.2196801582
1.2465309977
1.2432610617
1.2241011672
1.1995916627
1.2265208945
1.1815995574
1.2419350791
1.2224944047
1.1940586044
1.2432093114
1.2250777020
1.2112885791
1.2171130671
1.2228370876
1.1662883831
1.1980954620
1.2454232741
1.2258739089
1.1987957854
1.2467153156
1.2442763737
1.1678609397
1.1826847193
1.1881368726
1.1702498077
1.1925796916
1.2142411726
1.2257671379
1.2415030785
1.1636827696
1.2314840026
1.2154109124
1.1910716858
1.2120868041
1.2450019619
1.2072659124
1.1906601423
1.1977116881
1.2443294456
1.2083393142
1.2207043423
1.1941628204
1.2344653775
1.2285575851
1.2418694354
1.2313443943
1.2120924272
1.1781574368
1.2343063344
1.1657394314
1.2222507751
1.1626389316
1.2355783080
1.1826219085
1.2377521974
1.1971535432
1.1977135569
1.1792176645
1.2377543297
1.2323484727
1.2394636492
1.1657161885
1.2308886357
1.2265273053
1.2359079236
1.2238949385
1.2355817001
1.1610666029
1.1896457086
1.2414427942
1.2317587486
1.2311361174
1.1923198699
1.2276359095
1.2152556429
1.2414030083
1.2366712591
1.2265216424
1.2245988132
1.2348036427
1.2142172174
1.1782695884
1.2266692020
1.2414883188
1.2310727007
1.2387680770
1.2394010907
1.1986126335
1.1822094867
1.2387686668
1.2376970256
1.2035233284
1.2034461865
1.2388791522
1.2038496410
1.2154545671
1.2357084870
1.1995623931
1.2250692424
1.1980930890
1.2293555931
1.2314780355
1.2417650464
1.2265217925
1.2423014224
1.2043539499
1.1851474441
1.2371002203
1.1620304648
1.2267599219
1.1631248340
1.1846314817
1.1939729751
1.1938592173
1.1723529500
1.2335988681
1.2393451221
1.2374850766
1.1679592724
1.2303241534
1.2425573567
1.2358190051
1.1596320839
1.1964708458
1.2417593391
1.2241562947
1.1889951128
1.2170220991
1.2406882638
1.2393982830
1.2293555390
1.2323170001
1.2092798473
1.1756860662
1.2409073376
1.2390839703
1.1899631480
1.1826108202
1.2395433290
1.2401300400
1.2095586116
1.2130975501
1.2399292388
1.2108659447
1.2171060158
1.2284084114
1.1925781235