<VTKFile type="UnstructuredGrid" version="0.1">
	<UnstructuredGrid>
		<Piece NumberOfPoints="1862" NumberOfCells="3498">
			<CellData>
				<DataArray type="Int32" Name="type" NumberOfComponents="1" Format="ascii">
0
0
0
0
0
0
0
0
0
0
0
0
0
0
0
0
1
0
0
1
0
0
0
0
0
0
0
0
0
0
0
0
0
1
0
0
0
0
0
0
0
0
0
0
0
0
0
0
0
0
1
0
0
0
0
0
0
0
0
0
0
1
0
0
0
0
0
0
0
0
0
0
0
0
0
0
0
0
0
0
0
0
0
0
0
0
0
0
0
0
0
0
0
0
0
0
0
0
0
0
0
0
0
0
0
0
0
0
0
0
0
0
0
0
0
0
0
0
0
0
0
0
0
1
0
0
0
0
0
0
0
0
0
0
0
0
0
0
0
0
0
0
0
0
0
0
0
0
0
0
0
1
0
1
1
0
0
0
0
0
0
0
0
0
0
0
0
0
1
0
1
0
0
0
0
1
0
0
0
0
0
0
0
0
1
1
0
0
0
0
0
1
0
0
0
0
0
0
0
0
1
0
0
0
0
0
0
0
0
0
0
0
0
0
0
0
0
0
0
0
0
0
0
0
0
0
0
0
0
0
0
0
0
1
0
0
0
0
0
0
0
0
0
0
0
0
0
0
0
0
0
0
0
0
0
0
0
0
0
0
0
0
0
0
0
0
0
0
0
0
0
0
0
0
0
0
0
0
0
0
0
1
0
0
0
0
0
0
0
0
0
0
0
0
0
0
0
0
0
0
0
0
0
0
0
0
0
0
0
0
0
0
0
0
0
0
0
0
0
0
0
0
0
0
0
0
0
0
0
0
0
0
1
0
0
0
0
0
0
0
0
0
0
0
0
0
0
0
0
0
0
0
0
0
0
0
0
0
0
0
0
0
0
0
0
0
0
0
0
0
0
0
0
0
0
0
0
0
0
0
0
0
0
0
0
0
0
0
0
0
1
0
0
0
0
0
0
0
0
0
0
0
0
0
0
0
0
0
0
0
0
0
0
0
0
0
0
0
0
0
0
0
0
0
0
0
0
0
0
0
0
0
0
0
0
0
0
0
0
0
0
0
0
0
0
0
0
0
0
0
0
0
0
0
0
0
0
0
0
0
0
0
0
0
0
0
0
0
0
0
0
0
0
0
0
0
0
0
0
0
0
0
0
0
0
0
0
0
0
0
0
0
0
0
0
0
0
0
0
0
0
0
0
0
0
0
0
0
0
0
0
0
0
0
0
0
0
0
0
0
0
0
0
1
0
0
0
0
0
0
0
0
0
0
0
0
0
0
0
0
0
0
0
1
0
0
0
0
0
0
0
0
0
0
0
0
0
0
0
0
0
0
0
0
0
0
0
0
0
0
0
0
0
0
0
0
0
0
0
0
0
0
0
0
0
0
0
0
0
0
0
0
0
0
0
0
0
1
0
0
0
0
0
0
0
0
0
0
0
0
0
0
0
0
0
0
0
0
0
0
0
1
0
0
0
0
0
0
0
0
0
0
0
0
0
0
0
0
0
0
0
1
0
0
0
1
0
0
0
0
0
0
0
0
0
0
0
0
0
0
0
0
0
0
0
0
0
0
0
0
0
1
0
0
0
0
0
0
0
1
0
0
0
0
0
0
0
0
0
0
0
0
0
0
0
0
0
0
0
0
0
0
0
0
0
0
1
0
0
0
0
0
0
0
1
0
0
0
0
0
0
1
0
0
0
0
0
0
0
0
0
0
0
0
0
0
0
0
0
0
0
0
0
0
0
0
0
0
0
0
0
0
0
0
0
0
0
0
0
0
1
0
0
0
0
0
1
0
0
0
0
0
0
0
1
0
0
0
0
0
0
0
0
0
0
0
0
0
1
0
0
0
0
0
0
0
0
0
0
0
0
0
0
0
0
0
0
0
0
0
0
0
0
0
0
0
0
0
0
0
0
0
0
0
0
0
0
0
0
0
0
0
0
0
0
0
0
0
0
0
0
0
1
0
0
0
0
0
0
0
0
0
0
0
0
0
0
0
0
0
0
0
1
0
0
0
0
0
0
0
0
0
1
0
0
0
0
0
0
0
0
0
0
0
0
0
0
0
0
0
0
0
0
0
0
0
0
0
0
0
0
0
1
0
1
0
0
0
0
0
0
0
0
0
0
0
0
0
0
0
0
0
0
0
0
0
0
0
0
0
0
0
1
0
0
0
1
0
0
0
0
0
0
0
0
0
0
0
0
0
0
0
0
0
0
0
0
0
0
0
0
0
0
0
0
1
0
0
0
0
0
0
0
0
0
0
0
0
0
0
0
0
0
0
0
0
0
0
0
0
0
1
0
0
0
0
0
0
0
0
0
0
0
0
0
0
0
0
0
0
0
0
0
0
0
1
0
0
0
0
0
0
1
0
0
0
0
0
0
0
0
0
0
0
1
0
0
0
0
0
0
0
0
0
0
0
0
0
0
0
0
0
0
0
0
1
0
0
0
0
0
0
0
0
0
0
0
1
0
0
0
0
0
0
0
0
0
0
0
0
0
0
0
0
0
0
0
0
0
1
0
0
0
0
0
0
0
0
0
1
1
0
1
0
1
0
0
0
0
0
0
0
0
0
0
0
1
0
0
0
0
0
1
1
0
0
0
0
0
0
1
0
0
0
0
0
1
1
1
0
0
0
0
0
0
0
0
0
0
0
0
1
1
0
0
1
0
0
0
0
0
1
0
0
0
1
0
1
0
0
0
0
0
0
0
1
0
0
0
0
0
0
0
1
0
0
1
0
0
0
0
0
0
0
0
0
0
0
0
0
0
0
1
0
0
0
0
0
0
0
0
0
0
0
0
0
0
0
0
0
0
0
0
0
0
0
0
0
0
0
0
0
0
0
0
0
0
0
0
1
0
0
0
0
0
0
1
0
0
0
1
0
0
0
0
0
0
0
0
0
0
0
1
0
0
0
0
0
0
0
0
0
0
0
0
0
0
0
0
0
0
0
0
0
0
0
0
0
0
0
0
0
0
0
0
0
0
0
0
0
0
0
0
1
1
0
0
0
0
0
0
0
0
0
0
0
0
0
1
0
0
0
0
0
0
0
0
0
0
0
0
0
0
0
0
0
0
0
0
0
0
0
0
0
0
0
0
0
0
0
0
0
0
0
0
0
0
0
0
0
0
0
0
0
0
0
0
0
0
0
0
0
0
0
0
0
0
0
0
0
0
0
0
0
0
0
0
0
0
0
0
1
1
0
0
0
0
0
0
0
0
1
0
0
0
0
0
0
0
0
0
0
0
0
0
0
0
0
0
0
0
0
0
0
0
1
0
0
0
0
0
0
0
0
0
0
0
0
0
0
0
0
1
0
0
0
0
0
0
0
0
0
0
0
0
0
0
0
0
0
0
0
0
0
0
0
0
0
0
0
0
0
0
0
0
0
0
0
0
0
0
0
0
0
0
0
0
0
0
0
0
0
0
0
0
0
0
0
0
0
0
0
0
0
0
0
0
0
0
0
0
0
0
0
0
0
0
0
0
0
0
0
0
0
0
0
0
0
0
0
0
0
0
1
1
0
0
0
0
0
1
0
0
0
0
0
0
0
0
0
0
0
0
1
0
0
0
0
0
0
0
0
0
0
0
0
0
0
0
0
0
0
0
0
0
0
0
0
0
0
0
0
0
0
0
0
0
0
0
0
0
0
0
0
0
0
0
0
0
0
0
0
0
0
0
0
0
1
0
1
0
0
0
0
0
0
0
0
0
0
0
0
0
0
0
0
0
0
1
0
0
0
0
0
0
0
0
0
0
0
0
0
0
0
0
0
0
0
0
0
0
0
0
0
0
0
0
0
0
0
0
0
0
0
0
0
0
0
0
0
0
0
0
0
0
0
0
0
0
0
0
0
0
0
0
0
0
0
0
0
0
0
0
0
0
0
0
0
0
1
0
0
0
0
0
0
0
0
0
0
1
0
0
0
0
0
0
0
0
0
0
0
0
0
0
0
0
0
0
0
0
0
0
0
0
0
0
0
0
0
0
0
0
0
0
0
0
0
1
0
0
0
0
0
0
0
0
0
0
0
0
0
0
0
0
0
0
0
0
0
0
0
0
0
0
0
0
0
0
0
0
0
0
0
0
0
0
0
0
0
0
0
0
0
0
0
0
0
0
0
0
0
0
0
0
0
0
0
0
0
0
0
0
0
0
0
0
0
0
0
0
0
0
0
0
0
0
0
0
0
1
0
0
0
0
0
0
0
0
0
0
0
0
0
0
0
0
0
0
0
0
0
0
0
0
0
0
0
0
0
0
0
0
0
0
0
0
0
0
0
0
0
0
0
0
0
0
0
0
0
0
0
0
0
0
0
0
0
0
0
0
0
0
0
0
0
0
0
0
0
0
0
0
0
0
0
0
0
0
0
0
0
0
0
0
0
0
0
0
0
0
0
0
0
0
0
0
0
0
0
0
0
0
0
0
0
0
0
0
0
0
0
0
0
0
0
0
0
0
0
0
0
0
0
1
0
0
0
0
0
0
0
0
0
0
0
0
0
0
0
0
0
0
0
0
0
0
0
0
0
0
0
0
0
0
0
0
0
0
0
0
0
0
0
0
0
0
0
0
0
0
0
0
0
0
0
0
0
0
0
0
0
0
0
0
0
0
0
0
0
0
0
0
0
0
0
0
0
0
0
0
0
0
0
0
0
1
0
0
0
0
0
0
0
1
0
0
0
0
0
0
0
0
0
0
0
0
0
0
0
0
0
0
0
0
0
0
0
0
0
0
0
0
0
0
0
0
0
0
0
0
0
1
0
0
0
0
0
0
0
0
0
0
0
0
0
0
0
0
0
0
0
0
0
1
0
0
0
0
0
0
0
0
0
0
0
0
1
1
0
0
0
0
0
0
0
0
0
0
0
0
0
0
0
1
1
0
1
0
0
0
0
0
0
0
0
0
1
0
0
0
0
0
0
1
0
0
0
0
0
0
0
0
0
0
1
0
0
0
0
1
0
1
0
0
0
0
0
0
0
1
0
0
0
1
0
0
0
1
0
1
1
0
0
1
1
0
0
0
1
0
0
0
1
0
0
0
0
0
0
0
0
0
1
0
0
0
0
0
0
1
0
0
0
0
0
0
0
0
0
0
0
0
0
0
0
0
0
0
0
0
0
0
0
0
0
0
0
1
0
0
1
0
0
0
0
0
0
0
0
0
0
0
0
0
0
0
0
0
0
1
0
0
1
0
0
0
0
0
0
0
0
0
0
0
1
0
0
1
0
0
0
0
0
0
0
0
0
0
0
1
1
0
0
0
0
0
0
0
0
0
0
0
0
1
0
0
0
0
0
0
0
0
0
0
0
0
0
0
0
0
0
1
0
0
0
0
0
0
0
0
0
0
0
0
0
0
0
0
0
1
0
0
0
0
0
0
0
0
0
0
0
0
0
0
0
0
0
0
0
0
0
0
0
0
0
0
0
0
0
0
0
0
0
0
0
0
0
0
0
0
1
0
0
0
0
0
0
0
0
0
0
0
0
0
0
0
0
0
0
0
0
0
0
0
0
0
0
0
0
0
0
0
0
0
0
0
0
0
0
0
0
0
0
0
0
0
1
0
0
0
0
0
0
0
0
0
0
0
0
0
0
0
0
0
0
0
0
0
0
0
0
0
0
0
0
0
0
0
0
0
0
0
0
0
0
0
0
0
0
0
0
0
0
0
1
0
0
0
0
0
0
0
0
0
0
1
0
0
0
0
0
0
0
0
0
0
0
0
0
0
0
1
0
0
1
0
0
0
0
0
0
0
0
0
0
0
0
0
0
0
0
0
0
0
0
0
0
0
1
0
0
0
0
0
0
0
0
0
0
0
0
0
0
0
0
0
0
0
0
0
0
0
0
0
0
0
0
0
0
0
0
0
0
0
1
0
0
0
0
0
0
0
0
0
0
0
0
0
0
0
0
0
0
0
0
0
0
0
0
0
0
0
0
0
0
0
0
0
0
0
0
0
0
0
0
0
0
0
0
0
0
0
0
0
0
0
0
0
0
0
0
0
0
0
0
0
0
0
0
0
0
0
0
0
0
0
0
0
0
0
0
1
0
0
0
0
0
0
0
0
0
0
0
0
0
0
0
0
0
0
0
0
0
0
0
0
0
0
0
0
0
0
0
0
0
0
0
0
0
0
0
1
0
0
0
0
0
0
0
0
0
0
0
0
1
1
0
0
0
0
0
0
0
0
0
0
0
0
0
0
0
0
0
0
0
0
0
0
0
0
0
0
0
0
0
0
0
0
0
0
0
0
0
0
0
0
0
0
0
0
0
0
0
0
0
0
0
0
0
0
0
0
0
0
0
0
0
0
0
0
0
0
0
0
0
0
0
0
0
0
0
0
0
0
0
0
0
0
0
0
0
0
0
0
0
0
0
0
0
0
0
0
0
0
0
0
0
1
0
1
0
0
0
0
0
0
0
1
1
1
1
0
0
0
0
0
0
0
0
0
0
0
0
0
0
0
0
0
0
0
0
0
0
0
0
0
0
0
0
1
1
0
0
0
0
0
0
0
0
0
0
0
0
0
0
0
0
0
0
1
0
0
0
0
0
0
0
1
1
0
1
1
0
0
1
0
0
0
0
0
0
0
1
0
1
0
0
0
0
0
0
0
0
0
0
0
0
0
0
0
0
0
0
0
0
0
0
0
0
0
0
0
1
1
0
0
0
1
1
0
0
0
0
1
0
0
1
0
1
0
0
0
0
0
1
0
0
0
1
0
0
0
0
0
0
0
0
0
0
0
0
0
0
0
0
0
0
0
0
0
0
0
0
0
0
0
1
0
0
0
0
0
0
1
0
0
0
0
0
0
0
0
0
0
0
0
0
0
0
0
0
0
0
0
0
0
0
0
0
0
0
0
0
1
0
1
0
0
0
0
0
0
0
1
0
0
0
0
0
0
0
0
0
0
0
1
0
0
0
0
0
0
0
0
0
1
0
0
0
0
0
0
0
1
0
0
0
0
0
0
0
1
0
0
0
0
0
0
0
0
0
0
0
0
0
0
0
0
0
0
0
1
0
1
0
0
0
0
0
1
0
0
0
0
0
0
0
0
0
0
0
0
0
0
0
0
0
0
0
0
0
0
0
0
0
1
0
1
0
0
0
0
0
0
0
0
0
1
0
0
0
0
0
1
0
0
0
0
0
0
0
0
0
0
0
0
0
0
0
1
0
0
0
0
0
0
0
0
1
0
0
0
0
0
0
0
0
0
0
0
0
0
0
0
0
0
0
0
0
0
0
0
0
0
0
0
0
0
0
1
0
0
0
0
0
0
0
0
0
0
0
0
0
0
0
0
1
0
0
0
0
0
0
0
0
1
0
0
0
0
0
0
0
0
0
1
0
0
0
0
0
1
0
0
0
0
0
0
0
0
0
0
0
0
0
0
0
0
0
0
0
1
0
0
0
0
0
0
1
0
0
0
0
0
0
0
0
1
0
0
0
0
0
0
0
0
0
0
0
0
0
0
1
0
0
1
0
0
0
1
0
0
0
0
0
0
0
0
0
0
0
0
0
0
0
0
1
0
0
0
0
0
0
0
0
0
0
1
0
1
0
0
0
0
0
0
1
0
0
0
0
0
0
0
0
0
0
0
0
0
0
0
0
0
0
0
0
0
0
0
0
0
0
0
1
1
0
0
0
0
0
0
1
0
0
0
0
0
0
0
0
0
0
0
0
0
1
0
0
0
0
0
0
0
1
0
0
0
0
0
0
0
0
0
0
0
0
0
0
0
0
0
0
0
0
0
0
0
0
0
0
0
1
0
0
0
0
0
0
0
0
0
0
1
0
0
1
0
0
0
0
0
0
0
0
0
0
0
0
0
0
0
0
0
0
0
0
0
0
0
0
0
0
0
0
0
1
0
0
0
0
0
0
0
1
0
0
0
0
0
0
0
1
0
0
0
0
1
0
0
0
0
0
0
0
0
0
0
0
1
0
1
0
0
0
1
0
				</DataArray>
				<DataArray type="Float64" Name="h" NumberOfComponents="1" Format="ascii">
1.2023691925
1.2023819610
1.1998558936
1.2022552005
1.1993393144
1.2004097753
1.2009060077
1.2034960486
1.2020712322
1.2054710127
1.2031879944
1.2007385944
1.2029544073
1.2041387466
1.2032283141
1.2043619419
1.2016689688
1.2047906172
1.2023154018
1.2034406903
1.1989926304
1.2023867986
1.2002351539
1.1984905566
1.2025004537
1.2055290671
1.2002006829
1.1942811562
1.1990504520
1.2048459891
1.2042313599
1.2001378884
1.2024406162
1.1999719472
1.1948334353
1.1976522745
1.1969903216
1.1991253795
1.1936058375
1.1981261680
1.1987859081
1.1943690003
1.2002058832
1.1979665455
1.1973513427
1.1954987658
1.1990455159
1.1939413931
1.1830803504
1.1840004169
1.1980754381
1.1967181295
1.1978301813
1.1899448824
1.1953451120
1.1988632035
1.1954964485
1.1916536976
1.1905863693
1.1908682365
1.1887839172
1.1898374284
1.1838489598
1.1965500351
1.1964553209
1.1918875463
1.1848104372
1.1848370587
1.1897644106
1.1908747417
1.1903238177
1.1952684655
1.1977984593
1.1888193334
1.1897335227
1.1907729654
1.1913814335
1.1885494270
1.1925036522
1.1922664427
1.1868471166
1.1909066574
1.1798297871
1.1856729220
1.1930994883
1.1901149322
1.1860913961
1.1862677596
1.1876801739
1.1806286720
1.1852145348
1.1908961807
1.1875556318
1.1814765662
1.1894690092
1.1903094989
1.1872696211
1.1929205729
1.1923367430
1.1858983894
1.1806062395
1.1870235069
1.1886837718
1.1928361043
1.2071326994
1.1855859432
1.1879165323
1.1821800021
1.1886390424
1.1896120791
1.1823005228
1.1814539748
1.1862272863
1.1845634244
1.1877316064
1.1820697719
1.1887986856
1.2066947928
1.1827726868
1.1867687638
1.2069212669
1.1873204147
1.1885095834
1.2084152398
1.1856380114
1.1821305586
1.1878197665
1.2088683168
1.1828631272
1.1816108497
1.1834891301
1.1881248630
1.1867820057
1.1821513419
1.2064889817
1.1835204197
1.2065650821
1.1815144422
1.1852851131
1.2031198291
1.2093533538
1.2074888256
1.1825912120
1.2011030452
1.1887578836
1.1843677236
1.2048472335
1.1795580768
1.2079906917
1.1790106756
1.2070532796
1.1813934748
1.1808114713
1.1792989949
1.1860526106
1.1807174973
1.1799588929
1.2080655076
1.1792933267
1.2106417201
1.2019925386
1.1798707468
1.2054014083
1.2094438033
1.2085467984
1.1803005196
1.1987922570
1.2040244003
1.2097421515
1.1801996018
1.1802880883
1.2106987453
1.1795918700
1.2084662916
1.1973710042
1.1789859456
1.1997759171
1.1786231305
1.1790397135
1.2096765756
1.1807677782
1.1948853915
1.2107143028
1.1871411865
1.2106792727
1.2118324057
1.1963759551
1.1790366189
1.2102848689
1.2123696659
1.1923846954
1.1790275066
1.2115471444
1.1939391829
1.1790784703
1.1791759631
1.2091464663
1.1899338689
1.1914829807
1.1783316560
1.2123950349
1.1863355798
1.2120643417
1.1787798480
1.1875822291
1.2106245495
1.2039044516
1.2071005985
1.1890602191
1.1996476018
1.1921129113
1.2115906360
1.2099008633
1.2113614815
1.2056291315
1.1895610577
1.2018888006
1.2096452400
1.1946811112
1.2111266127
1.1867678936
1.1807444855
1.1972115265
1.1822225939
1.1850684776
1.1780457369
1.1792822152
1.1838899839
1.1853976291
1.1799851995
1.1784577955
1.1815038058
1.1846119500
1.1780604857
1.1782658166
1.1829638694
1.1904786160
1.2026008887
1.2117491147
1.1979653100
1.1900301252
1.2061567011
1.2099620675
1.1981904427
1.2062394812
1.2027658198
1.2103649353
1.1930649852
1.2045359831
1.2088637062
1.2003903360
1.1927095438
1.2091756773
1.1879792794
1.1874354588
1.2107783280
1.2005706534
1.2046478221
1.2113622089
1.1814595373
1.1953802536
1.1834123180
1.1826915185
1.1813506913
1.1842776276
1.1781443562
1.1775546478
1.1848685902
1.1778428562
1.1799898105
1.1786709168
1.1956644776
1.1799515456
1.1829038688
1.1821635926
1.1835460409
1.1831489698
1.1820374261
1.1806794035
1.1846392808
1.1792368396
1.1775671046
1.1778728832
1.1777516684
1.1793053700
1.1807088467
1.1836958141
1.2010267548
1.2096079982
1.2090976701
1.2012865358
1.1883507848
1.2049702816
1.2052220668
1.1960386466
1.1877689652
1.1963726756
1.2031523102
1.2078832727
1.2107786428
1.2099744402
1.2033985699
1.1909971215
1.1851965841
1.1858580170
1.1986360676
1.1905094096
1.1989206101
1.2082898092
1.1817180405
1.1818336440
1.1813978560
1.1773060292
1.1828889029
1.1780149236
1.1805683536
1.1933007171
1.1792313064
1.1770048822
1.1937026503
1.1804186627
1.1826951294
1.1792066371
1.1775964902
1.1816436848
1.1823595758
1.1809669237
1.1773432858
1.1812144865
1.1799055664
1.1785891813
1.1771810205
1.1770209131
1.1816832621
1.1798235556
1.1828493904
1.1785894415
1.1995667834
1.1751480467
1.1939091010
1.1854682807
1.1943325751
1.2086563315
1.1861163170
1.2035131777
1.1992131582
1.2038900920
1.2080198790
1.1753894140
1.1772699020
1.1830056179
1.1769699894
1.2018649863
1.2072312007
1.1746592404
1.1966575554
1.1767140964
1.1881951628
1.1970341791
1.1760978802
1.1762024615
1.1741819729
1.2099740585
1.1887667949
1.1837051971
1.2015125676
1.1773537790
1.1770134218
1.1773561443
1.2089492677
1.1765184502
1.1751417639
1.2066975360
1.1764107324
1.1796554671
1.1794391543
1.1769972593
1.2014343098
1.1773288207
1.1800893654
1.1809660061
1.1784738692
1.1767266844
1.1910518145
1.1784012114
1.1915428885
1.1810863701
1.1806484718
1.1800890883
1.1879537120
1.1764305945
1.1799565255
1.1801961760
1.1789597160
1.1765689890
1.1789437872
1.2002518848
1.1943239834
1.1922779877
1.1816353829
1.1801620618
1.1778987123
1.1835512595
1.1790709471
1.1800858254
1.1767630862
1.1778490224
1.1810620935
1.1809574592
1.1857079927
1.1798391425
1.1772141612
1.1773974647
1.1767441865
1.1976319776
1.1750704290
1.1764737203
1.1921458469
1.1766107802
1.1782408566
1.1772796424
1.1778773874
1.2022901590
1.1757764140
1.1742562805
1.1781287335
1.1755054872
1.2074960924
1.1755383058
1.1839416938
1.1773527572
1.1739249849
1.1762664149
1.1747685035
1.1766607542
1.1772259344
1.1741354817
1.1769368039
1.1757143604
1.1776567082
1.1766639281
1.1758507464
1.2000902556
1.1750051297
1.1771254493
1.1949591660
1.1783435480
1.1765327843
1.1778097996
1.1749864184
1.1757546373
1.1754642329
1.2089482254
1.1780878327
1.1865116852
1.1778775497
1.1730915085
1.1742154163
1.1762801430
1.1735382317
1.2059457695
1.1817056390
1.1955524874
1.1761095420
1.1892901612
1.1787224727
1.1783134163
1.1795564561
1.1806953850
1.2004604151
1.1763630720
1.1899523799
1.1776990946
1.1844354543
1.1792811822
1.1794428300
1.1728172354
1.1862011446
1.2061031696
1.2004589649
1.1984196332
1.1800808056
1.1981228410
1.1761452954
1.1736032377
1.1733886649
1.1771842634
1.1963634144
1.1791438953
1.1926089082
1.1772737505
1.1794190101
1.1723822600
1.2044133441
1.2002527427
1.1901613880
1.1928011701
1.1727729972
1.1782258091
1.1960097074
1.1753882815
1.1742959568
1.1882923034
1.1922790858
1.1816359565
1.1871184135
1.1795818216
1.2076950803
1.1786052219
1.1770568827
1.1963625248
1.1820480000
1.1758609006
1.1899542649
1.1781941516
1.2061015349
1.1754539066
1.1770166216
1.2051925568
1.1895455787
1.1820489008
1.1764577742
1.1769106647
1.1745219312
1.1951225302
1.1745668338
1.1940866307
1.1762006952
1.1787123787
1.1816108128
1.1753868404
1.1955536748
1.1760540486
1.1999115479
1.2004596551
1.1830666782
1.2044114996
1.1928029201
1.2076937852
1.1787125426
1.1800812943
1.1848614650
1.1909687895
1.2067419337
1.1884868518
1.1923933576
1.1978264051
1.1844367777
1.1867301320
1.1916019662
1.1733858225
1.1899432015
1.1976468373
1.1801829463
1.2036332838
1.1791631874
1.1796681480
1.1921535491
1.1745820363
1.1739088763
1.1840003534
1.1933620479
1.1742135785
1.1981231151
1.1814842427
1.1769311923
1.1871200996
1.1783120509
1.1765509630
1.1754654341
1.1866984244
1.1767941863
1.1748208495
1.1763372166
1.1782386242
1.2034267176
1.1780282186
1.1778399909
1.1758605313
1.1826263341
1.1904561995
1.1778072097
1.1753879009
1.1910917466
1.1775276364
1.1978806902
1.1757132126
1.1773927153
1.1783416193
1.1914490489
1.1755062650
1.1848031431
1.1902911638
1.1820140296
1.1938039923
1.1780860458
1.1805435736
1.2051037475
1.1725548058
1.1841382977
1.1795180131
1.1850770336
1.1730528664
1.1931047739
1.1781272825
1.1936729380
1.1891413630
1.1734405574
1.1764681743
1.1796792255
1.1913508541
1.1999293269
1.1739373542
1.1877018245
1.1778400033
1.1955977174
1.1767020753
1.1999114832
1.1866997796
1.1816118415
1.1951236408
1.1733567413
1.1783758886
1.2017577553
1.2051915008
1.1877385339
1.1849316932
1.1731241133
1.2036321495
1.1970108888
1.1891415900
1.1914003000
1.1967392609
1.1796687921
1.1895469630
1.1840016053
1.1976474786
1.1743985138
1.1726324823
1.1754820508
1.1771646084
1.2067411269
1.1923008000
1.1866686579
1.1818183107
1.1725107148
1.1744887072
1.1801830764
1.1929687632
1.1730285556
1.1867206016
1.1890287293
1.2025771323
1.1963573961
1.1813192765
1.1840160070
1.1800152263
1.1923946865
1.1750964066
1.1915718528
1.2044471973
1.1985605507
1.1761331147
1.1737257890
1.1722818483
1.1757681232
1.1761166751
1.1864696131
1.2006305971
1.1940247414
1.1723248491
1.1720704565
1.1830670485
1.1949990714
1.1859530961
1.1953511661
1.1744055177
1.1952582790
1.1971838135
1.1719488518
1.1724268637
1.1867520496
1.1896407740
1.1741433916
1.1924464318
1.1955479108
1.1926310318
1.1730471887
1.1721572813
1.1725028931
1.1928129086
1.1922033476
1.1874639493
1.1885990132
1.1932675248
1.1734567155
1.1728607885
1.1747928084
1.1741253711
1.1789046994
1.1724040064
1.1718892169
1.1817204725
1.1726332110
1.1734978529
1.1796805478
1.1719521697
1.1899440266
1.1721735791
1.1916587314
1.1916610847
1.1720944654
1.1877028223
1.1721404630
1.1719820995
1.1933631879
1.1720938248
1.1920665814
1.1915085242
1.1725864865
1.1721905270
1.1988115312
1.2012535419
1.2009510312
1.2009622697
1.2012664870
1.2016358368
1.2007350565
1.2031818629
1.2028707649
1.1999005626
1.2004037650
1.1993461096
1.1999112857
1.2020787730
1.2032190983
1.2008988053
1.2046904592
1.2028794809
1.2016412644
1.2041427262
1.2047849205
1.2022612431
1.1998602587
1.2023028139
1.2048412584
1.2043986172
1.2007988035
1.2035038310
1.2055280126
1.2024959936
1.2054763709
1.2036053274
1.2029654989
1.1992832845
1.2032883669
1.2012475572
1.2046964837
1.2042272494
1.2041518083
1.1999705400
1.2024288789
1.2001202208
1.2011739832
1.1981221718
1.1942750406
1.2016714223
1.2043681977
1.2001912772
1.1935889340
1.2008013041
1.2044042747
1.1987731780
1.2041439914
1.2034442824
1.1992868256
1.2002527275
1.1931807643
1.2023971423
1.1972902944
1.2036151041
1.1989946957
1.2012647324
1.2014398953
1.1930911518
1.1939399764
1.2032960225
1.1973451454
1.1980738588
1.1990249717
1.1942950504
1.1984961716
1.1990660182
1.1954809371
1.1954183408
1.2002171965
1.1958258481
1.2056765602
1.1942879299
1.1943546673
1.1948986141
1.2011869000
1.1978111204
1.1931814854
1.1831021694
1.1848538153
1.2014537747
1.1972934991
1.1962421972
1.1931010163
1.1976614724
1.1964357403
1.1991423687
1.1937705082
1.1948354635
1.1838588796
1.1848444416
1.1932461419
1.1969922908
1.1965408900
1.1943585826
1.1921729319
1.1914265103
1.1979851952
1.1888225178
1.1909808005
1.1952644302
1.1977801729
1.1907115925
1.1953839769
1.1965247908
1.1958287407
1.1889204849
1.1949003463
1.1943778881
1.1913817759
1.1903250672
1.1887769111
1.1897355624
1.1954340561
1.1977951999
1.1897651461
1.1959792525
1.2056816192
1.1908741704
1.1962467572
1.1937721818
1.1916668844
1.1932537715
1.1858214743
1.1930129207
1.1839692840
1.1830697136
1.1967318681
1.1848466661
1.1955154404
1.1909037157
1.1856782140
1.1921313981
1.1830913249
1.1839920397
1.1887831020
1.1898378765
1.1978118395
1.1878765422
1.1887723142
1.1905853605
1.1918421460
1.1909794530
1.1916426982
1.1964510773
1.1921730072
1.1959809681
1.1931444244
1.1953509608
1.1897287411
1.1907112672
1.1889206715
1.1988792267
1.1909913187
1.1895832630
1.1954006802
1.1899424307
1.1914256951
1.1908663412
1.1908873281
1.1916538154
1.1965409602
1.1875578928
1.1858156673
1.1928349075
1.1923224675
1.1921316634
1.1940258112
1.1930130481
1.1870241167
1.1846922509
1.1869156918
1.1866972773
1.1918971982
1.1806144647
1.1848052218
1.1937294259
1.1929098559
1.1878883375
1.1903010342
1.1921284936
1.1839614809
1.1859009431
1.1855881555
1.1916777134
1.1798330326
1.1909924829
1.1886416681
1.1814652247
1.1878755554
1.1895810551
1.1862306299
1.1931448183
1.1907827351
1.1823144419
1.1918414026
1.1885473869
1.1964670884
1.1850156548
1.1916518707
1.1823113366
1.1896083084
1.1897273716
1.1869131722
1.1798287590
1.1899346577
1.1878881180
1.1901226384
1.1873187969
1.1877101144
1.1937307515
1.2068585403
1.1921275643
1.1866948778
1.1931118027
1.1922779675
1.1860895860
1.1798241409
1.1868457241
1.1887985012
1.1925039983
1.1846886166
1.2069191021
1.1862661315
1.1940387940
1.1850120650
1.1881205637
1.1831029980
1.2066737514
1.1821396068
1.1864382405
1.1844516589
1.1876753416
1.1894731279
1.1814646926
1.1817378790
1.1806191157
1.1852097965
1.1828396444
1.1917638417
1.1856438906
1.1878231473
1.1823039684
1.1816137446
1.1886850628
1.1811704420
1.1831138623
1.1899341276
1.2068603596
1.1877035131
1.1837959863
1.2064867009
1.1835250391
1.1867900045
1.2071345002
1.1872712989
1.1887511657
1.1836564890
1.2074873287
1.1857072517
1.2066744454
1.1817339524
1.1845558979
1.1821695988
1.2060437643
1.1917646727
1.1844464397
1.1877294951
1.2079897690
1.1830961832
1.1825937873
1.2089382933
1.1820670510
1.1864338545
1.1843710927
1.1828324596
1.1879213810
1.2075772253
1.1893418541
1.1838189862
1.1809107196
1.1811655543
1.1837870557
1.2078378155
1.1820202482
1.1812267544
1.1851880713
1.1867613959
1.1831082095
1.1813957382
1.2066970766
1.1844155629
1.1827670292
1.2059385700
1.2070548917
1.1808130720
1.1860537949
1.2060457541
1.2089390034
1.2040226875
1.2085466146
1.1857007312
1.1796448929
1.2075783314
1.2091678873
1.1789965077
1.1847862080
1.1836549534
1.2084163146
1.1828610323
1.2019859659
1.2078980986
1.1885171397
1.1834855886
1.2058920221
1.2054015603
1.1835386798
1.1798716440
1.2088687853
1.1792943505
1.1851859763
1.2065668752
1.1821490554
1.1804403867
1.1848347555
1.1812199899
1.1813413544
1.1815125824
1.1795934129
1.2052225687
1.2078543906
1.1852834052
1.2059413992
1.1838178401
1.2078357740
1.1809087052
1.1893493469
1.1844130172
1.1802007349
1.1836368291
1.1820183346
1.1802901393
1.2084674697
1.1790099195
1.2107145101
1.1860037373
1.2078992626
1.2091678792
1.1803344957
1.1799017999
1.1792645466
1.2011138839
1.1795572529
1.2048484280
1.2096774069
1.1789961836
1.2058946405
1.1847869229
1.2104099391
1.2093532276
1.1807696491
1.1835364355
1.1997656148
1.1843553729
1.2031262242
1.1796436859
1.2101696480
1.2102846527
1.1807157234
1.1799571923
1.2078516262
1.1857639798
1.1804391428
1.2068914322
1.2052252722
1.1848359853
1.2106787979
1.1813391788
1.1792969060
1.2080644526
1.1836345874
1.1963614975
1.1866286598
1.1790800932
1.1988061543
1.2101695558
1.1803313078
1.1791770477
1.2104092413
1.1792632008
1.1843533849
1.1795867559
1.2109970893
1.1799004894
1.1860088018
1.2097940931
1.1790292290
1.1827690843
1.2094429870
1.1802982825
1.1939268099
1.1787008547
1.2106416358
1.1863289726
1.1787921258
1.2106991233
1.2120640523
1.1973832688
1.1787809468
1.1857700739
1.2097426874
1.2123945459
1.2068931101
1.1914738552
1.1787542606
1.1790380684
1.2093541496
1.2109971761
1.2097942061
1.2115903288
1.1787008676
1.1795860139
1.2102449777
1.1791417916
1.1948971432
1.1827667371
1.1789841894
1.1866350173
1.2120262213
1.2121413229
1.1786231754
1.2099020555
1.1890536002
1.1923942181
1.1784580053
1.1787906829
1.2123702253
1.1787530547
1.1787246399
1.1784842598
1.1871482192
1.2118326290
1.1790352668
1.1867634050
1.2103654823
1.2027642279
1.2086139944
1.2062428112
1.1899406452
1.2121419141
1.1871185968
1.2113134975
1.1981816203
1.2084615735
1.2093523556
1.1904720014
1.2115473972
1.2118168728
1.1791400550
1.2091449540
1.2114511370
1.2046492792
1.2077760103
1.1879754752
1.2005649099
1.2091776311
1.1930560570
1.2120269577
1.2117482858
1.2102443457
1.1783369982
1.1856433251
1.1875865369
1.1787239403
1.1807212623
1.1956545706
1.1784834251
1.1821673201
1.1846355227
1.1778719708
1.1792440431
1.1786918146
1.1836900719
1.1848685324
1.1799627043
1.1783312686
1.1814689628
1.1842711061
1.1778421321
1.1786193223
1.1781444778
1.1829022012
1.1921219793
1.2012851477
1.2075864637
1.2111267016
1.1963657808
1.1883473436
1.2084589539
1.1871224986
1.2086118192
1.2109275377
1.1850299218
1.2052259841
1.2096092054
1.2113136368
1.1996568119
1.2070980778
1.2039056299
1.2106242717
1.1946921756
1.2034003703
1.2082926488
1.2118175993
1.1989158357
1.1909912617
1.2096438099
1.1895675269
1.1858573353
1.2068323363
1.2109461278
1.2018943915
1.2077729399
1.2056281138
1.2114518519
1.1814934435
1.1936954507
1.1836134219
1.1828505525
1.1823542669
1.1812153069
1.1846190984
1.1786164116
1.1782662528
1.1773422874
1.1854002843
1.1780602082
1.1781369013
1.1799169948
1.1785971768
1.1972227997
1.1783372785
1.1799748329
1.1829640945
1.1822176843
1.1828927921
1.1826924086
1.1818294445
1.1805755196
1.1850745051
1.1792759358
1.1786898361
1.1773046810
1.1856443301
1.1780466549
1.1775969291
1.1792427715
1.1780313546
1.1807321001
1.1838940464
1.1995655313
1.2065194733
1.2099612641
1.2109274069
1.2086581608
1.2026016528
1.1900359604
1.1829046361
1.2038935242
1.1850302435
1.2061530380
1.1943278738
1.1861150214
1.1979724331
1.2075829153
1.2018663691
1.2072345054
1.2109466179
1.2102378922
1.2045338648
1.1927172333
1.1837058143
1.2056658450
1.1874386331
1.2068282213
1.1970306233
1.1887636115
1.2003947187
1.2088613967
1.1810661997
1.1820400719
1.1809559725
1.1775677714
1.1835439265
1.1779065535
1.1806707743
1.1915383963
1.1792941167
1.1780277788
1.1775303488
1.1767620584
1.1816344439
1.1953885270
1.1801956452
1.1831542451
1.1790800834
1.1777516202
1.1810880895
1.1826973472
1.1806455878
1.1775559289
1.1836114091
1.1773946667
1.1813480672
1.1799777278
1.1786634140
1.1769977348
1.1767251998
1.1809701554
1.1796600560
1.1834140015
1.1784841550
1.1781337331
1.1750717016
1.1773543037
1.1809222955
1.1766139988
1.2010273118
1.2065154681
1.1748670255
1.1749237089
1.1921429475
1.1769809322
1.1839407803
1.1960435229
1.1764702965
1.1757799840
1.1745208715
1.2090963313
1.1877720023
1.1829035400
1.2022923238
1.1976308010
1.2049664686
1.1772149456
1.1772405278
1.1772278437
1.2074981259
1.1769311942
1.1756854146
1.2052209972
1.1755607649
1.1777127124
1.1817054578
1.1772207841
1.2031502344
1.2078803915
1.1748127270
1.1744645912
1.1949567309
1.1769893370
1.1865098728
1.1986392543
1.1759302027
1.1763689272
1.1745222241
1.2102379742
1.1905140656
1.1851973882
1.2042333447
1.2000908010
1.2056617494
1.1776122937
1.1768785289
1.1777365868
1.2093032114
1.1767584653
1.1752792546
1.2059486677
1.1865464456
1.1761442156
1.1798964813
1.1798174098
1.1807012108
1.1768873541
1.1791442108
1.1771803909
1.2004584013
1.1992254201
1.1936841705
1.1771910906
1.1926078725
1.1839093975
1.1794226729
1.1773909233
1.1816786385
1.1820315215
1.1785788990
1.1789561531
1.1770221795
1.1892875621
1.1782323853
1.1933060523
1.1816443376
1.1809701310
1.1877598280
1.1795833440
1.1882913247
1.1761080932
1.1792831759
1.1804180067
1.1795177099
1.1763636499
1.1787256364
1.1775267566
1.2024601728
1.2011268102
1.1939407207
1.1767276283
1.1921611160
1.1822578357
1.1795596114
1.1780073510
1.1816324674
1.1841374980
1.1791964328
1.1806948970
1.1770058070
1.1777072610
1.1817151478
1.1814013726
1.1862002471
1.1794427655
1.1776062887
1.1745731681
1.1775939711
1.1762246260
1.1770166960
1.1769804277
1.1764580772
1.1761074441
1.1992138406
1.1752849766
1.1754210473
1.1766291482
1.1752861871
1.1777845320
1.1939121115
1.1768100653
1.1788099654
1.1772406063
1.1777844662
1.1779115965
1.1766974780
1.2035103368
1.1759327347
1.1745202868
1.1784592209
1.1745840200
1.1768135244
1.1753885694
1.1757860893
1.2080182318
1.1785446781
1.1756824575
1.1854699294
1.1773536022
1.1772797442
1.1733872764
1.1739104121
1.1777824111
1.1760549604
1.1736963289
1.1764682629
1.1749215474
1.1738054717
1.2052175404
1.1809222784
1.1769299772
1.1775406236
1.1742568058
1.1772691931
1.1741612821
1.1771009285
1.1755407606
1.1759313100
1.1773673143
1.1770129678
1.1766592375
1.1757918447
1.2015113448
1.1748668039
1.1750187449
1.1760512473
1.1774296159
1.1966597673
1.1761987213
1.1788510061
1.1778379032
1.1778376894
1.1763894052
1.2042302967
1.1753867806
1.1746579085
1.1780627002
1.1750762566
1.1758582451
1.1758058680
1.2093028103
1.1786690512
1.1766616029
1.1760952444
1.1881977879
1.1779119033
1.1733581377
1.1743292323
1.1773549448
1.1763806143
1.1735982516
1.1767565224
1.1752764926
1.1734357403
1.2066946639
1.1830061210
1.1769879453
1.1769678166
1.1972125262
1.1764319375
1.1739383081
1.1730542538
1.1767239942
1.1910549278
1.1984203594
1.1789398611
1.1921621821
1.1767942866
1.1787342711
1.1801592573
1.1800862300
1.1725562627
1.2036745858
1.1992261739
1.2018124634
1.1765682444
1.1895531097
1.1916850266
1.1730298103
1.1778404989
1.1956888658
1.1756322329
1.1738091582
1.1865475026
1.1943249680
1.1802620681
1.1802626327
1.1859452318
1.1799529154
1.1798403052
1.1729263661
1.1857089595
1.1821595836
1.2067223236
1.2014345974
1.1780291535
1.1772086850
1.1974473473
1.1941557648
1.1810828639
1.1980956493
1.1753516263
1.1996555981
1.1764112356
1.1734416838
1.1733685711
1.1773221598
1.1978304484
1.1794388957
1.1939417924
1.1769463139
1.1800850585
1.1821600890
1.1725123587
1.2052839909
1.2011274020
1.2025501551
1.1768840599
1.1902901179
1.1945306531
1.1727283676
1.1783936751
1.1974482597
1.1750634197
1.1741930067
1.1879548380
1.1936852675
1.1822584880
1.1889932074
1.1887792783
1.1798964204
1.1800888138
1.1726821394
1.1877607377
1.2081393870
1.2024605307
1.1958325816
1.1793031538
1.1766977607
1.1996846906
1.1956878493
1.1833319978
1.1756328731
1.1815348329
1.2036724263
1.1916869056
1.1777846187
1.2067207622
1.1754198512
1.1776567601
1.1793035536
1.1880227512
1.1768927208
1.1917931410
1.2044615643
1.1912377220
1.1740678526
1.1879706264
1.1765251131
1.1967941141
1.1833332526
1.1848840369
1.1765247170
1.1777345250
1.1766974034
1.1913334010
1.1759365796
1.1748132143
1.1781940904
1.1776122544
1.1740661630
1.1885312352
1.1934628033
1.1745714347
1.1763654708
1.1792938102
1.1954079201
1.1776070566
1.2018979105
1.1761069477
1.1765171851
1.1782272489
1.1804263957
1.1747702785
1.1782518308
1.1904267103
1.1751481617
1.1737484464
1.1768781250
1.1754837527
1.1732095712
1.1806781764
1.1936287930
1.1754816618
1.1746758251
1.1972134582
1.1838909755
1.1761621153
1.1984519607
1.2018111163
1.1751385593
1.1841186209
1.2052818044
1.1945322580
1.1787795725
1.2081386281
1.1757909805
1.1782274349
1.1762010547
1.1810835780
1.1860569588
1.1766638116
1.1915441318
1.2061962779
1.1896401198
1.1907410703
1.1962461516
1.1859468925
1.1879670288
1.1767447055
1.1762796889
1.1771254599
1.1916601091
1.1741811241
1.1745682274
1.1736949119
1.1908749806
1.1960505241
1.1750036072
1.1807790860
1.1950917780
1.2026348561
1.1763891410
1.1732110496
1.1787794445
1.1795314884
1.1790393703
1.1916576257
1.1741594985
1.1735366865
1.1827923113
1.1926232957
1.1749844604
1.1738037351
1.1996554544
1.1823228509
1.1757533583
1.2006445087
1.2025485929
1.1770948211
1.1887811564