<VTKFile type="UnstructuredGrid" version="0.1">
	<UnstructuredGrid>
		<Piece NumberOfPoints="1862" NumberOfCells="3498">
			<CellData>
				<DataArray type="Int32" Name="type" NumberOfComponents="1" Format="ascii">
0
0
0
0
0
0
0
0
0
0
0
0
0
0
0
0
1
0
0
1
0
0
0
0
0
0
0
0
0
0
0
0
0
1
0
0
0
0
0
0
0
0
0
0
0
0
0
0
0
0
1
0
0
0
0
0
0
0
0
0
0
1
0
0
0
0
0
0
0
0
0
0
0
0
0
0
0
0
0
0
0
0
0
0
0
0
0
0
0
0
0
0
0
0
0
0
0
0
0
0
0
0
0
0
0
0
0
0
0
0
0
0
0
0
0
0
0
0
0
0
0
0
0
1
0
0
0
0
0
0
0
0
0
0
0
0
0
0
0
0
0
0
0
0
0
0
0
0
0
0
0
1
0
1
1
0
0
0
0
0
0
0
0
0
0
0
0
0
1
0
1
0
0
0
0
1
0
0
0
0
0
0
0
0
1
1
0
0
0
0
0
1
0
0
0
0
0
0
0
0
1
0
0
0
0
0
0
0
0
0
0
0
0
0
0
0
0
0
0
0
0
0
0
0
0
0
0
0
0
0
0
0
0
1
0
0
0
0
0
0
0
0
0
0
0
0
0
0
0
0
0
0
0
0
0
0
0
0
0
0
0
0
0
0
0
0
0
0
0
0
0
0
0
0
0
0
0
0
0
0
0
1
0
0
0
0
0
0
0
0
0
0
0
0
0
0
0
0
0
0
0
0
0
0
0
0
0
0
0
0
0
0
0
0
0
0
0
0
0
0
0
0
0
0
0
0
0
0
0
0
0
0
1
0
0
0
0
0
0
0
0
0
0
0
0
0
0
0
0
0
0
0
0
0
0
0
0
0
0
0
0
0
0
0
0
0
0
0
0
0
0
0
0
0
0
0
0
0
0
0
0
0
0
0
0
0
0
0
0
0
1
0
0
0
0
0
0
0
0
0
0
0
0
0
0
0
0
0
0
0
0
0
0
0
0
0
0
0
0
0
0
0
0
0
0
0
0
0
0
0
0
0
0
0
0
0
0
0
0
0
0
0
0
0
0
0
0
0
0
0
0
0
0
0
0
0
0
0
0
0
0
0
0
0
0
0
0
0
0
0
0
0
0
0
0
0
0
0
0
0
0
0
0
0
0
0
0
0
0
0
0
0
0
0
0
0
0
0
0
0
0
0
0
0
0
0
0
0
0
0
0
0
0
0
0
0
0
0
0
0
0
0
0
1
0
0
0
0
0
0
0
0
0
0
0
0
0
0
0
0
0
0
0
1
0
0
0
0
0
0
0
0
0
0
0
0
0
0
0
0
0
0
0
0
0
0
0
0
0
0
0
0
0
0
0
0
0
0
0
0
0
0
0
0
0
0
0
0
0
0
0
0
0
0
0
0
0
1
0
0
0
0
0
0
0
0
0
0
0
0
0
0
0
0
0
0
0
0
0
0
0
1
0
0
0
0
0
0
0
0
0
0
0
0
0
0
0
0
0
0
0
1
0
0
0
1
0
0
0
0
0
0
0
0
0
0
0
0
0
0
0
0
0
0
0
0
0
0
0
0
0
1
0
0
0
0
0
0
0
1
0
0
0
0
0
0
0
0
0
0
0
0
0
0
0
0
0
0
0
0
0
0
0
0
0
0
1
0
0
0
0
0
0
0
1
0
0
0
0
0
0
1
0
0
0
0
0
0
0
0
0
0
0
0
0
0
0
0
0
0
0
0
0
0
0
0
0
0
0
0
0
0
0
0
0
0
0
0
0
0
1
0
0
0
0
0
1
0
0
0
0
0
0
0
1
0
0
0
0
0
0
0
0
0
0
0
0
0
1
0
0
0
0
0
0
0
0
0
0
0
0
0
0
0
0
0
0
0
0
0
0
0
0
0
0
0
0
0
0
0
0
0
0
0
0
0
0
0
0
0
0
0
0
0
0
0
0
0
0
0
0
0
1
0
0
0
0
0
0
0
0
0
0
0
0
0
0
0
0
0
0
0
1
0
0
0
0
0
0
0
0
0
1
0
0
0
0
0
0
0
0
0
0
0
0
0
0
0
0
0
0
0
0
0
0
0
0
0
0
0
0
0
1
0
1
0
0
0
0
0
0
0
0
0
0
0
0
0
0
0
0
0
0
0
0
0
0
0
0
0
0
0
1
0
0
0
1
0
0
0
0
0
0
0
0
0
0
0
0
0
0
0
0
0
0
0
0
0
0
0
0
0
0
0
0
1
0
0
0
0
0
0
0
0
0
0
0
0
0
0
0
0
0
0
0
0
0
0
0
0
0
1
0
0
0
0
0
0
0
0
0
0
0
0
0
0
0
0
0
0
0
0
0
0
0
1
0
0
0
0
0
0
1
0
0
0
0
0
0
0
0
0
0
0
1
0
0
0
0
0
0
0
0
0
0
0
0
0
0
0
0
0
0
0
0
1
0
0
0
0
0
0
0
0
0
0
0
1
0
0
0
0
0
0
0
0
0
0
0
0
0
0
0
0
0
0
0
0
0
1
0
0
0
0
0
0
0
0
0
1
1
0
1
0
1
0
0
0
0
0
0
0
0
0
0
0
1
0
0
0
0
0
1
1
0
0
0
0
0
0
1
0
0
0
0
0
1
1
1
0
0
0
0
0
0
0
0
0
0
0
0
1
1
0
0
1
0
0
0
0
0
1
0
0
0
1
0
1
0
0
0
0
0
0
0
1
0
0
0
0
0
0
0
1
0
0
1
0
0
0
0
0
0
0
0
0
0
0
0
0
0
0
1
0
0
0
0
0
0
0
0
0
0
0
0
0
0
0
0
0
0
0
0
0
0
0
0
0
0
0
0
0
0
0
0
0
0
0
0
1
0
0
0
0
0
0
1
0
0
0
1
0
0
0
0
0
0
0
0
0
0
0
1
0
0
0
0
0
0
0
0
0
0
0
0
0
0
0
0
0
0
0
0
0
0
0
0
0
0
0
0
0
0
0
0
0
0
0
0
0
0
0
0
1
1
0
0
0
0
0
0
0
0
0
0
0
0
0
1
0
0
0
0
0
0
0
0
0
0
0
0
0
0
0
0
0
0
0
0
0
0
0
0
0
0
0
0
0
0
0
0
0
0
0
0
0
0
0
0
0
0
0
0
0
0
0
0
0
0
0
0
0
0
0
0
0
0
0
0
0
0
0
0
0
0
0
0
0
0
0
0
1
1
0
0
0
0
0
0
0
0
1
0
0
0
0
0
0
0
0
0
0
0
0
0
0
0
0
0
0
0
0
0
0
0
1
0
0
0
0
0
0
0
0
0
0
0
0
0
0
0
0
1
0
0
0
0
0
0
0
0
0
0
0
0
0
0
0
0
0
0
0
0
0
0
0
0
0
0
0
0
0
0
0
0
0
0
0
0
0
0
0
0
0
0
0
0
0
0
0
0
0
0
0
0
0
0
0
0
0
0
0
0
0
0
0
0
0
0
0
0
0
0
0
0
0
0
0
0
0
0
0
0
0
0
0
0
0
0
0
0
0
0
1
1
0
0
0
0
0
1
0
0
0
0
0
0
0
0
0
0
0
0
1
0
0
0
0
0
0
0
0
0
0
0
0
0
0
0
0
0
0
0
0
0
0
0
0
0
0
0
0
0
0
0
0
0
0
0
0
0
0
0
0
0
0
0
0
0
0
0
0
0
0
0
0
0
1
0
1
0
0
0
0
0
0
0
0
0
0
0
0
0
0
0
0
0
0
1
0
0
0
0
0
0
0
0
0
0
0
0
0
0
0
0
0
0
0
0
0
0
0
0
0
0
0
0
0
0
0
0
0
0
0
0
0
0
0
0
0
0
0
0
0
0
0
0
0
0
0
0
0
0
0
0
0
0
0
0
0
0
0
0
0
0
0
0
0
0
1
0
0
0
0
0
0
0
0
0
0
1
0
0
0
0
0
0
0
0
0
0
0
0
0
0
0
0
0
0
0
0
0
0
0
0
0
0
0
0
0
0
0
0
0
0
0
0
0
1
0
0
0
0
0
0
0
0
0
0
0
0
0
0
0
0
0
0
0
0
0
0
0
0
0
0
0
0
0
0
0
0
0
0
0
0
0
0
0
0
0
0
0
0
0
0
0
0
0
0
0
0
0
0
0
0
0
0
0
0
0
0
0
0
0
0
0
0
0
0
0
0
0
0
0
0
0
0
0
0
0
1
0
0
0
0
0
0
0
0
0
0
0
0
0
0
0
0
0
0
0
0
0
0
0
0
0
0
0
0
0
0
0
0
0
0
0
0
0
0
0
0
0
0
0
0
0
0
0
0
0
0
0
0
0
0
0
0
0
0
0
0
0
0
0
0
0
0
0
0
0
0
0
0
0
0
0
0
0
0
0
0
0
0
0
0
0
0
0
0
0
0
0
0
0
0
0
0
0
0
0
0
0
0
0
0
0
0
0
0
0
0
0
0
0
0
0
0
0
0
0
0
0
0
0
1
0
0
0
0
0
0
0
0
0
0
0
0
0
0
0
0
0
0
0
0
0
0
0
0
0
0
0
0
0
0
0
0
0
0
0
0
0
0
0
0
0
0
0
0
0
0
0
0
0
0
0
0
0
0
0
0
0
0
0
0
0
0
0
0
0
0
0
0
0
0
0
0
0
0
0
0
0
0
0
0
0
1
0
0
0
0
0
0
0
1
0
0
0
0
0
0
0
0
0
0
0
0
0
0
0
0
0
0
0
0
0
0
0
0
0
0
0
0
0
0
0
0
0
0
0
0
0
1
0
0
0
0
0
0
0
0
0
0
0
0
0
0
0
0
0
0
0
0
0
1
0
0
0
0
0
0
0
0
0
0
0
0
1
1
0
0
0
0
0
0
0
0
0
0
0
0
0
0
0
1
1
0
1
0
0
0
0
0
0
0
0
0
1
0
0
0
0
0
0
1
0
0
0
0
0
0
0
0
0
0
1
0
0
0
0
1
0
1
0
0
0
0
0
0
0
1
0
0
0
1
0
0
0
1
0
1
1
0
0
1
1
0
0
0
1
0
0
0
1
0
0
0
0
0
0
0
0
0
1
0
0
0
0
0
0
1
0
0
0
0
0
0
0
0
0
0
0
0
0
0
0
0
0
0
0
0
0
0
0
0
0
0
0
1
0
0
1
0
0
0
0
0
0
0
0
0
0
0
0
0
0
0
0
0
0
1
0
0
1
0
0
0
0
0
0
0
0
0
0
0
1
0
0
1
0
0
0
0
0
0
0
0
0
0
0
1
1
0
0
0
0
0
0
0
0
0
0
0
0
1
0
0
0
0
0
0
0
0
0
0
0
0
0
0
0
0
0
1
0
0
0
0
0
0
0
0
0
0
0
0
0
0
0
0
0
1
0
0
0
0
0
0
0
0
0
0
0
0
0
0
0
0
0
0
0
0
0
0
0
0
0
0
0
0
0
0
0
0
0
0
0
0
0
0
0
0
1
0
0
0
0
0
0
0
0
0
0
0
0
0
0
0
0
0
0
0
0
0
0
0
0
0
0
0
0
0
0
0
0
0
0
0
0
0
0
0
0
0
0
0
0
0
1
0
0
0
0
0
0
0
0
0
0
0
0
0
0
0
0
0
0
0
0
0
0
0
0
0
0
0
0
0
0
0
0
0
0
0
0
0
0
0
0
0
0
0
0
0
0
0
1
0
0
0
0
0
0
0
0
0
0
1
0
0
0
0
0
0
0
0
0
0
0
0
0
0
0
1
0
0
1
0
0
0
0
0
0
0
0
0
0
0
0
0
0
0
0
0
0
0
0
0
0
0
1
0
0
0
0
0
0
0
0
0
0
0
0
0
0
0
0
0
0
0
0
0
0
0
0
0
0
0
0
0
0
0
0
0
0
0
1
0
0
0
0
0
0
0
0
0
0
0
0
0
0
0
0
0
0
0
0
0
0
0
0
0
0
0
0
0
0
0
0
0
0
0
0
0
0
0
0
0
0
0
0
0
0
0
0
0
0
0
0
0
0
0
0
0
0
0
0
0
0
0
0
0
0
0
0
0
0
0
0
0
0
0
0
1
0
0
0
0
0
0
0
0
0
0
0
0
0
0
0
0
0
0
0
0
0
0
0
0
0
0
0
0
0
0
0
0
0
0
0
0
0
0
0
1
0
0
0
0
0
0
0
0
0
0
0
0
1
1
0
0
0
0
0
0
0
0
0
0
0
0
0
0
0
0
0
0
0
0
0
0
0
0
0
0
0
0
0
0
0
0
0
0
0
0
0
0
0
0
0
0
0
0
0
0
0
0
0
0
0
0
0
0
0
0
0
0
0
0
0
0
0
0
0
0
0
0
0
0
0
0
0
0
0
0
0
0
0
0
0
0
0
0
0
0
0
0
0
0
0
0
0
0
0
0
0
0
0
0
0
1
0
1
0
0
0
0
0
0
0
1
1
1
1
0
0
0
0
0
0
0
0
0
0
0
0
0
0
0
0
0
0
0
0
0
0
0
0
0
0
0
0
1
1
0
0
0
0
0
0
0
0
0
0
0
0
0
0
0
0
0
0
1
0
0
0
0
0
0
0
1
1
0
1
1
0
0
1
0
0
0
0
0
0
0
1
0
1
0
0
0
0
0
0
0
0
0
0
0
0
0
0
0
0
0
0
0
0
0
0
0
0
0
0
0
1
1
0
0
0
1
1
0
0
0
0
1
0
0
1
0
1
0
0
0
0
0
1
0
0
0
1
0
0
0
0
0
0
0
0
0
0
0
0
0
0
0
0
0
0
0
0
0
0
0
0
0
0
0
1
0
0
0
0
0
0
1
0
0
0
0
0
0
0
0
0
0
0
0
0
0
0
0
0
0
0
0
0
0
0
0
0
0
0
0
0
1
0
1
0
0
0
0
0
0
0
1
0
0
0
0
0
0
0
0
0
0
0
1
0
0
0
0
0
0
0
0
0
1
0
0
0
0
0
0
0
1
0
0
0
0
0
0
0
1
0
0
0
0
0
0
0
0
0
0
0
0
0
0
0
0
0
0
0
1
0
1
0
0
0
0
0
1
0
0
0
0
0
0
0
0
0
0
0
0
0
0
0
0
0
0
0
0
0
0
0
0
0
1
0
1
0
0
0
0
0
0
0
0
0
1
0
0
0
0
0
1
0
0
0
0
0
0
0
0
0
0
0
0
0
0
0
1
0
0
0
0
0
0
0
0
1
0
0
0
0
0
0
0
0
0
0
0
0
0
0
0
0
0
0
0
0
0
0
0
0
0
0
0
0
0
0
1
0
0
0
0
0
0
0
0
0
0
0
0
0
0
0
0
1
0
0
0
0
0
0
0
0
1
0
0
0
0
0
0
0
0
0
1
0
0
0
0
0
1
0
0
0
0
0
0
0
0
0
0
0
0
0
0
0
0
0
0
0
1
0
0
0
0
0
0
1
0
0
0
0
0
0
0
0
1
0
0
0
0
0
0
0
0
0
0
0
0
0
0
1
0
0
1
0
0
0
1
0
0
0
0
0
0
0
0
0
0
0
0
0
0
0
0
1
0
0
0
0
0
0
0
0
0
0
1
0
1
0
0
0
0
0
0
1
0
0
0
0
0
0
0
0
0
0
0
0
0
0
0
0
0
0
0
0
0
0
0
0
0
0
0
1
1
0
0
0
0
0
0
1
0
0
0
0
0
0
0
0
0
0
0
0
0
1
0
0
0
0
0
0
0
1
0
0
0
0
0
0
0
0
0
0
0
0
0
0
0
0
0
0
0
0
0
0
0
0
0
0
0
1
0
0
0
0
0
0
0
0
0
0
1
0
0
1
0
0
0
0
0
0
0
0
0
0
0
0
0
0
0
0
0
0
0
0
0
0
0
0
0
0
0
0
0
1
0
0
0
0
0
0
0
1
0
0
0
0
0
0
0
1
0
0
0
0
1
0
0
0
0
0
0
0
0
0
0
0
1
0
1
0
0
0
1
0
				</DataArray>
				<DataArray type="Float64" Name="h" NumberOfComponents="1" Format="ascii">
0.8042389268
0.8041651432
0.8243577275
0.8010307509
0.8305319613
0.8230583663
0.8132376740
0.7925947972
0.8084288139
0.7775822641
0.7945224868
0.8167535230
0.7912650541
0.7864909480
0.7937083405
0.7779573432
0.8050337257
0.7802975273
0.7983175564
0.7890644846
0.8337099129
0.7931886843
0.8115149758
0.8419340842
0.7971781457
0.7770378311
0.7974921446
0.8433516569
0.8273600819
0.7802683504
0.7826592140
0.8184268073
0.7884248267
0.8249885206
0.8816790228
0.8451850223
0.8539446124
0.8095644672
0.8335886613
0.8433686137
0.8341164843
0.8604711840
0.8038911008
0.8259060115
0.8502376698
0.8404787216
0.8179010216
0.8906459964
0.9196018439
0.9045939446
0.8470979059
0.8447202073
0.8345569360
0.8886998937
0.8641118759
0.8004287171
0.8494263018
0.9083526559
0.9104498849
0.8966985964
0.9301788946
0.9268673598
0.9240656187
0.8523533215
0.8306380730
0.8529867453
0.8868409186
0.9090276009
0.9218534211
0.9168101355
0.9119261878
0.8728424077
0.8048954446
0.8978047257
0.9060285429
0.8116277011
0.9083272266
0.9227759174
0.9020843350
0.8253762665
0.9387698135
0.8610678607
0.9379870774
0.8908464761
0.8122176436
0.8265797682
0.9402617486
0.8692681914
0.9197151562
0.9309552604
0.9376064701
0.8226555785
0.9302841843
0.9188246798
0.8452110815
0.8388809282
0.8462327177
0.8203293174
0.8360419959
0.9390893641
0.9339009520
0.9395485035
0.8658193140
0.8994794356
0.7660700305
0.8684374911
0.8252361739
0.9277880090
0.9210169740
0.8573799141
0.9093302115
0.9238601963
0.9309020663
0.9322192649
0.8856575817
0.9462214640
0.8762830673
0.7721495490
0.9380189697
0.9039171014
0.7675433007
0.8587176810
0.8089791863
0.7589137518
0.9247130366
0.9316306978
0.8945841493
0.7578455953
0.9484110238
0.9432810109
0.9431839504
0.8393624447
0.9110319598
0.9506946622
0.7691656395
0.9419892326
0.7688540967
0.9485288703
0.9464543492
0.7806930026
0.7576794783
0.7624061992
0.9449445749
0.7881582844
0.8215277456
0.9442907351
0.7742065833
0.9430008832
0.7614002137
0.9416863942
0.7646685725
0.9504795692
0.9477436601
0.9438867949
0.9456227453
0.9458190244
0.9472041060
0.7617618271
0.9432303313
0.7514114243
0.7847142083
0.9452554525
0.7703647025
0.7546281087
0.7598905188
0.9420852546
0.7942766862
0.7780192773
0.7539172005
0.9438968164
0.9486114825
0.7510552979
0.9447553952
0.7605879861
0.7955383293
0.9404881408
0.7909200513
0.9406072707
0.9419452572
0.7544684354
0.9450020297
0.7977573806
0.7508468349
0.8027053467
0.7488782007
0.7499852862
0.7985023470
0.9417461202
0.7530064805
0.7506005151
0.7977255616
0.9428400512
0.7492433858
0.8002393448
0.9407911484
0.9413404143
0.7559178914
0.7954846268
0.7996722220
0.9384150913
0.7499278590
0.8052096980
0.7500807583
0.9407158385
0.7910538999
0.7509197462
0.7762802976
0.7638810704
0.7964125477
0.7868575300
0.7912523025
0.7501596029
0.7542841497
0.7516061801
0.7698586874
0.7882336033
0.7815611893
0.7535169433
0.7919938918
0.7497003682
0.7918129846
0.9152742213
0.7904992152
0.8765619508
0.7980001646
0.9391039162
0.9365719028
0.8354122092
0.7855559577
0.9284915751
0.9398519458
0.8975008045
0.8155004654
0.9382843187
0.9403892744
0.8552253271
0.7882044432
0.7776371833
0.7503309415
0.7854485206
0.7843468564
0.7660600540
0.7527983452
0.7883958092
0.7663577216
0.7789885105
0.7530462002
0.7905101860
0.7718970148
0.7557402226
0.7818444810
0.7867911332
0.7561063652
0.7840405985
0.7802511543
0.7536100091
0.7842882508
0.7727069723
0.7516246731
0.8888877761
0.7871445145
0.7816163948
0.8150587476
0.8612156215
0.8018055434
0.9399977291
0.9394907466
0.7781145445
0.9380076135
0.9057094184
0.9337466437
0.7905401181
0.9244877236
0.8429944042
0.8654773436
0.7739041701
0.7957342830
0.8371081148
0.8847568261
0.7870904304
0.9345133688
0.9381892412
0.9389599683
0.9404972225
0.9226879550
0.9089169952
0.8213742532
0.7790964845
0.7552308749
0.7553616140
0.7797266883
0.7815846723
0.7687459108
0.7687572237
0.7847966494
0.7816000601
0.7861738818
0.7741133358
0.7593732920
0.7536263713
0.7561942611
0.7744540882
0.7849927092
0.7779645418
0.7770675019
0.7830399906
0.7840929913
0.7837981006
0.7588880541
0.7728319666
0.8236490694
0.7988474577
0.9376127583
0.7717674723
0.9308819300
0.8746785111
0.7854088687
0.9175203661
0.9405359462
0.7866217827
0.8463138830
0.7849478758
0.8962501913
0.9399774039
0.7820601587
0.8019300508
0.8206096227
0.9390929461
0.8483617598
0.8981781546
0.9309658717
0.9412496930
0.9390006070
0.7706947045
0.8722079028
0.7747319442
0.9163757300
0.7807906689
0.9477074236
0.7863931434
0.7839354429
0.7853062198
0.7580271879
0.7799284817
0.7718269009
0.7811861396
0.7713091841
0.7583825953
0.9353222350
0.8101946251
0.7824592629
0.8454802832
0.7763778993
0.7616324105
0.9504221229
0.7845953715
0.8311654132
0.7857015873
0.7839364232
0.8814664667
0.8945877305
0.9474835033
0.7562079448
0.7828467240
0.7769876292
0.7767578433
0.8308465769
0.8335122851
0.8102400148
0.7592330786
0.8392178138
0.9208296680
0.7628210741
0.9421626347
0.8609429644
0.8341801939
0.9406644169
0.7778631972
0.9277843567
0.7735472862
0.7742366162
0.9101159130
0.9380194553
0.7868056682
0.8873802954
0.7850620734
0.7753051698
0.8081050917
0.7898897974
0.8231061873
0.9402121438
0.7779335682
0.8328766925
0.8624637187
0.9426470486
0.8611529360
0.7827203348
0.7996398011
0.8074262684
0.8473683670
0.7770509978
0.9271485028
0.8389253128
0.8872608446
0.8548773342
0.9399131454
0.9104035563
0.7715428332
0.7881558534
0.8310010907
0.8097176371
0.8191822823
0.8702904333
0.8362669312
0.7829071064
0.9453719783
0.9193431627
0.7868826611
0.8691318138
0.7887384477
0.8524114558
0.8428610020
0.7742825373
0.9176899476
0.9521716316
0.8180876065
0.9438172741
0.7616369481
0.8989026545
0.7850427303
0.8067620362
0.9594328892
0.8557527693
0.9385274502
0.8318895606
0.8242461394
0.9499452522
0.8967433135
0.9432099865
0.8714095301
0.8646272388
0.8917003021
0.7789016713
0.9121744360
0.8841761579
0.7856288341
0.7900533210
0.8896058444
0.8430858217
0.9124378080
0.8744264662
0.9404416006
0.7592431999
0.7952054530
0.7859746719
0.8428689213
0.9677317338
0.9475242951
0.8592323918
0.9697384978
0.7651132138
0.7850506156
0.7866385993
0.9389036631
0.7868870052
0.8496234913
0.8000731626
0.7768792234
0.8620459446
0.7780594548
0.9417856137
0.7919693425
0.9027902461
0.7948963455
0.7866501781
0.7992324569
0.9935901993
0.8394073168
0.7651030956
0.7803332982
0.7859420721
0.8012938562
0.7826295713
0.9415726499
0.9959259223
0.9861429208
0.9231074083
0.7924816090
0.8218744556
0.8115882295
0.9094772553
0.7782520106
1.0098332251
0.7688588021
0.7827339810
0.8152099845
0.7897679739
1.0163006421
0.8773205786
0.7945708036
0.9515564087
0.9546513128
0.8309684503
0.8074435774
0.8473758660
0.7935404127
0.7835504561
0.7629441150
0.8078223262
0.9310564887
0.7924615009
0.7972937717
0.9195301089
0.7919807711
0.8843592483
0.7651122284
0.9004758333
0.8686019806
0.7673079678
0.7976277349
0.7973172182
0.8605985754
0.8901322172
0.9485880606
0.7899142535
0.9316487561
0.8025590734
0.8888693272
0.8738045550
0.8082675000
0.8921898416
0.7866576624
0.8639249756
0.7802456127
0.7780758578
0.8738370681
0.7688689850
0.7897820356
0.7629521548
0.8738038434
0.8013222956
0.8674166329
0.8337681885
0.7643040556
0.8523527725
0.7940613230
0.7902740474
0.7949131448
0.8604172212
0.8243951166
0.9713075186
0.8428257117
0.7852224055
0.8825910664
0.7709172514
0.8882320302
0.8135428889
0.8148332533
0.9309353218
0.9580645035
0.8042275736
0.8047879495
0.9475623572
0.7826503756
0.8784194599
0.8968188690
0.7935525037
0.8000693044
0.9373625072
0.9405044220
0.8008684516
0.9143257869
0.9397275752
0.9162608935
0.7887790039
0.7721116488
0.8067903956
0.9004375024
0.9195279454
0.8208169775
0.8037358270
0.8431644109
0.9515562973
0.8118317560
0.9199769511
0.7865221843
0.9432194060
0.8703829318
0.7900559087
0.8405483329
0.9438592973
0.8780320261
0.8222695134
0.8826219916
0.8479927864
0.7952403053
0.8273253730
0.7685438611
1.0100815257
0.8475621723
0.8666750700
0.8148094104
0.9920608510
0.7980442518
0.8181332725
0.8538255462
0.8733725144
0.9929494071
0.9193966225
0.8185957439
0.8675773337
0.7810529262
0.9760576059
0.8325774806
0.9004327452
0.7922716543
0.9488806645
0.7802620214
0.8008797622
0.8082836982
0.7899339430
0.9657464651
0.8976954023
0.7761732083
0.7673176812
0.8091897412
0.8357592499
1.0356942874
0.7709278168
0.8540425134
0.8733752315
0.8420739999
0.8598081988
0.8135611493
0.7976390144
0.8042409153
0.7852434809
0.9988201606
1.0515139814
0.9703026559
0.9369938618
0.7643131419
0.8699945617
0.8784955796
0.8284346855
1.0026839954
0.9590156618
0.8825913849
0.8609896850
1.0052819980
0.8408486316
0.8088024302
0.7742641878
0.7902944859
0.8397948678
0.8214991397
0.8362753911
0.7940756393
0.9823031853
0.8025505405
0.7712421716
0.7844133654
0.9588088875
1.0168277013
1.0600703858
0.9679510835
0.8288185518
0.8149978195
0.7789872090
0.7964052460
1.0430876317
1.0545726921
0.8738405467
0.8652653825
0.8746776745
0.8481202569
1.0079653973
0.8481195309
0.8533394304
1.0986518713
1.0856735084
0.8532953034
0.8560087632
1.0257846049
0.8562887510
0.8580224277
0.8448095423
1.0581212333
1.0885074525
1.0795960897
0.8485338856
0.8403387431
0.8396452505
0.8399030869
0.8462437805
1.0490567174
1.0774649740
0.9843246743
1.0171674648
0.8371037903
1.0995985041
1.1145244785
0.8331756706
1.0515075051
1.0198443608
0.8185962580
1.1203044023
0.8428360735
1.0800729964
0.8201222521
0.8296417404
1.1188479800
0.8325792862
1.1067597575
1.0793410540
0.8048059952
1.0601295262
0.8068768170
0.8080456740
1.0434856768
1.0367311156
0.7866360469
0.8096462294
0.8144796178
0.8144044381
0.8095512160
0.8103320128
0.8167774517
0.7945399901
0.7996905238
0.8261339789
0.8231175852
0.8304654520
0.8260414699
0.8083723143
0.7937460742
0.8132797034
0.7838410037
0.7996595328
0.8103025155
0.7896379862
0.7802967642
0.8010186598
0.8243220014
0.7984000381
0.7802656970
0.7812760233
0.8145150571
0.7925697706
0.7770199947
0.7971797455
0.7775900477
0.7879581549
0.7912284837
0.8346858504
0.7843080233
0.8048570458
0.7838372795
0.7826523893
0.7896168558
0.8249925470
0.7884465691
0.8185400918
0.7931002625
0.8434063072
0.8274583564
0.8050388373
0.7779684396
0.8039705714
0.8337070381
0.8145015553
0.7812751833
0.8342042163
0.7864890432
0.7890777504
0.8346548203
0.8113902013
0.8917921346
0.7931421757
0.8567845239
0.7879307208
0.8336908791
0.8047605759
0.7989606014
0.8534422400
0.8906514430
0.7843070059
0.8502858513
0.8471061668
0.8180338272
0.8431965958
0.8418806803
0.8272379755
0.8495575900
0.8210574222
0.7974502475
0.8661943570
0.7773784695
0.8273691339
0.8690548125
0.8777166775
0.7930757133
0.8346985014
0.8917825471
0.9136196050
0.9157858995
0.7988807212
0.8567596691
0.8644154690
0.8533204842
0.8451209133
0.8308126274
0.8094571620
0.8839190730
0.8816711773
0.9240723438
0.9090285617
0.8626763385
0.8539304974
0.8524218579
0.8690068207
0.9016114904
0.9011132506
0.8257386755
0.8978251088
0.8902607991
0.8728758683
0.8049444427
0.9181547955
0.8102046102
0.8191182760
0.8661699064
0.9299259635
0.8777129453
0.8603916659
0.9083302203
0.9119321977
0.9044672543
0.9060390270
0.8209575342
0.8134827275
0.9218541141
0.8704735820
0.7773890722
0.9168066455
0.8643780106
0.8839023928
0.8415923512
0.8625873661
0.8998447744
0.8871304906
0.8963878594
0.9195764904
0.8446009890
0.9157923839
0.8403124640
0.8611340414
0.8908559931
0.8723714878
0.9136028842
0.9045809043
0.9301766281
0.9268678544
0.8133767454
0.9326457965
0.9044466100
0.9104442273
0.8969414803
0.8902379291
0.8087728284
0.8061204764
0.9016067823
0.8704701005
0.8796293234
0.8640685534
0.9208629656
0.9181539688
0.9299286673
0.8003969114
0.8712039204
0.9100167678
0.8101678228
0.8886611568
0.9011042833
0.8966815404
0.8226508160
0.9083538402
0.8189894079
0.9302893016
0.8998149267
0.8994764463
0.8361285030
0.8723316336
0.8080891611
0.8871103684
0.9395493583
0.8774207410
0.9339025411
0.8811584218
0.8528951547
0.9339433619
0.8868303564
0.8924948220
0.8203622522
0.9378242664
0.8389223275
0.8807073703
0.8963999622
0.9390992241
0.8684156658
0.8415306571
0.9393873642
0.8711502756
0.9210202995
0.9238934364
0.9326465181
0.9100080798
0.9309143920
0.8796063149
0.8116738622
0.9022085519
0.8969298516
0.9227733236
0.8060900262
0.9383272481
0.8088071351
0.9093344847
0.8574488194
0.9208596794
0.9338985226
0.9393487644
0.8801359663
0.9378223590
0.8265998757
0.8587600221
0.9137650014
0.8924950791
0.7721315627
0.8806805633
0.8811129587
0.8122282837
0.8253625415
0.9402582186
0.9379359698
0.9387644198
0.8763574025
0.9020851356
0.8774600035
0.7675234504
0.8692781906
0.8080935477
0.9383112227
0.8393643871
0.8915515963
0.7687173968
0.9316731257
0.9272940150
0.9343500532
0.9197016136
0.8451976156
0.9188058279
0.9416457309
0.9309054209
0.9375828528
0.9354717945
0.9116073046
0.9247176081
0.8946112336
0.9022537198
0.9433038070
0.8657661024
0.9388496970
0.8819221918
0.8800741789
0.7721518027
0.9137540205
0.9282955743
0.7691510536
0.9420201642
0.9110452162
0.7660925968
0.8462746731
0.8214979650
0.8726293199
0.7623888176
0.9197118263
0.7687455537
0.9416144892
0.9322006647
0.9277448004
0.7698827841
0.9116079234
0.9343254588
0.8856057238
0.7613808709
0.8915861392
0.9449634782
0.7565195591
0.9461981266
0.9272826652
0.9443093011
0.9354393939
0.8252863645
0.7646151845
0.8067392662
0.8621457058
0.9493626136
0.9388217396
0.9282821067
0.7625617817
0.9488365823
0.9367880717
0.9454781071
0.9038958492
0.8820455301
0.9504867954
0.7721625299
0.9455530491
0.9379880441
0.7741627848
0.7646334229
0.9477525675
0.9456291293
0.7699189062
0.7565376492
0.7780001305
0.7598677033
0.9197222500
0.9440336131
0.7646322300
0.7560350391
0.9417000903
0.8558710077
0.8727087552
0.7589313175
0.9483977249
0.7847102332
0.7624837549
0.8090391943
0.9431630332
0.7710052770
0.7703317436
0.9484950233
0.9452627082
0.7578648292
0.9432286515
0.9454676057
0.7688939109
0.9506845110
0.9467565582
0.8449018465
0.9367444250
0.9472646479
0.9485138454
0.9447631214
0.7762262924
0.7638055013
0.9464476737
0.7741723869
0.8623075639
0.7625932950
0.9493556278
0.8067977882
0.9455417793
0.9439078507
0.9499959642
0.9488234241
0.9486176686
0.7605629887
0.9416856286
0.7508286818
0.8399850037
0.7625056184
0.7560544199
0.9412292269
0.9458987617
0.9432576035
0.7881474606
0.9429906166
0.7742299020
0.7544473324
0.9416973830
0.7710190500
0.8559695480
0.7526794400
0.7577016501
0.9450233143
0.9484811022
0.7909216259
0.9502409650
0.7807004500
0.9440264653
0.7531870978
0.7529896546
0.9457986745
0.9471940239
0.7638335630
0.8228892852
0.9467483071
0.7662284507
0.7762409076
0.8450163028
0.7488628746
0.9472432493
0.9438983343
0.7617838489
0.9499863226
0.7985033871
0.8188154344
0.9407877394
0.7942660346
0.7532058658
0.9411990795
0.9413602065
0.7526989737
0.9432627755
0.9502316624
0.9424405901
0.7504196294
0.9458913992
0.8400658815
0.7531235588
0.9428316936
0.9514940598
0.7546478239
0.9420604404
0.8002198480
0.9406829139
0.7514289694
0.8051169331
0.9398039509
0.7510715749
0.7500652124
0.7955447535
0.9407123301
0.8229947653
0.7539337704
0.7499123242
0.7662446658
0.7996333796
0.9393877688
0.9419485733
0.7574756236
0.7504359970
0.7531421245
0.7501432259
0.9406779504
0.9424259541
0.7518926027
0.9407186183
0.7977811131
0.9514845746
0.9404919319
0.8188970406
0.7498796299
0.7493864120
0.9405996539
0.7542633483
0.7963606551
0.7977626097
0.9398539647
0.9398072860
0.7506166268
0.9393902233
0.9404880949
0.9388138645
0.8027764725
0.7500004440
0.9417514745
0.7917637180
0.7530293017
0.7789701460
0.7587822182
0.7663295790
0.7955287918
0.7494028170
0.7834083209
0.7503886430
0.7883813846
0.7584862634
0.7574988872
0.7881715337
0.7492599511
0.7494458291
0.9406902216
0.7559415469
0.7502663380
0.7726794552
0.7608411858
0.7840128473
0.7842764299
0.7560869942
0.7904773432
0.7498973456
0.7503117372
0.7519120576
0.9394982059
0.7785902825
0.7910940904
0.9404897043
0.9088517513
0.7905149434
0.9388172437
0.8652350916
0.7870180129
0.9389589653
0.9345585080
0.9401150939
0.8212082069
0.7780664860
0.9245030878
0.9384149895
0.8887177398
0.8016897843
0.9380046989
0.9392366264
0.9400121805
0.8427748874
0.7912841470
0.7797088412
0.7609303110
0.7497181017
0.7861561513
0.7815627264
0.7585100376
0.7834404341
0.7588086637
0.7514147737
0.7752642375
0.7687352061
0.7552159669
0.7504066579
0.7868619516
0.7639111027
0.7763018293
0.7509364346
0.7920161537
0.7744318406
0.7588712029
0.7494637354
0.7837829800
0.7849683489
0.7535351197
0.7882692175
0.7770441393
0.7633004079
0.7518622827
0.7815714962
0.7608661605
0.7698897976
0.7502844703
0.8975810518
0.7865990540
0.7725977805
0.7746704208
0.8018170916
0.8480824520
0.8156475877
0.9391995993
0.9403797852
0.9390899369
0.7856212744
0.9382871088
0.9392457050
0.8980061164
0.9309778627
0.7905101002
0.9394991196
0.9284644383
0.8554102058
0.8767164372
0.7717204316
0.7848899662
0.8234434523
0.8744087869
0.7981082119
0.9365306580
0.9400864061
0.9376075983
0.7786234628
0.9391062019
0.9399896206
0.9174650905
0.9381057843
0.9152878867
0.8355903557
0.7807719688
0.7636301603
0.7528129607
0.7514334698
0.7580143332
0.7776566241
0.7843750583
0.7747389812
0.7712922350
0.7752947395
0.7660849059
0.7852900023
0.7799066797
0.7854586165
0.7609511143
0.7763585856
0.7616190920
0.7518789054
0.7541225210
0.7719224942
0.7868143475
0.7769572541
0.7661867320
0.7802781401
0.7633199290
0.7839199694
0.7828292600
0.7818571695
0.7557565409
0.7714796688
0.8373452639
0.7881095237
0.9381942078
0.7739577023
0.9271195591
0.8849517657
0.7850451866
0.9227078400
0.9380781031
0.9388007063
0.9398993816
0.7756453599
0.7871598417
0.8326545370
0.7958504019
0.8870402478
0.9404862501
0.7752797340
0.8152405656
0.8079816734
0.9394937636
0.7726301681
0.9371801574
0.8614657750
0.9058074418
0.9337241379
0.9406666637
0.9380043351
0.7741868930
0.8606747332
0.7816910393
0.9100001322
0.9392171747
0.9453526150
0.8067478037
0.7828550075
0.8690951761
0.7791149869
0.7636469564
0.9470523121
0.9412783617
0.7868693765
0.8254882896
0.7850176395
0.7848088949
0.8582981459
0.9176516861
0.9523230826
0.7553751384
0.7816240232
0.7747783774
0.7742673262
0.7828874950
0.7687653116
0.8191694068
0.8435652285
0.8242629841
0.7616267057
0.8265904212
0.9047564052
0.7669762529
0.9387430605
0.8002857222
0.7850131063
0.8519119790
0.7741341600
0.7593879192
0.9429622269
0.9495132975
0.7856127970
0.8222532980
0.7859581880
0.7830538924
0.8771067627
0.9024976528
0.9485407579
0.7541376237
0.7841128208
0.7779929188
0.7694788617
0.7788820364
0.7662013055
0.8182551010
0.8441113530
0.8107577278
0.7569236451
0.8390318198
0.9255813723
0.7651025593
0.8238791266
0.9415429355
0.7879387201
0.8724660677
0.8692868230
0.9385034694
0.8217476326
0.9412430785
0.7803201096
0.7847809518
0.8018192181
0.9230534770
0.8115708524
0.8553877673
0.7781967417
0.9371768435
0.7707468624
0.8389456834
0.9164499951
0.8535378816
0.9390124735
0.7868741254
0.8771438762
0.7854239102
0.7821068955
0.8208127602
0.8381668853
0.7835386705
0.8309563837
0.9388622455
0.7866051605
0.8465820191
0.8666733586
0.9417739696
0.8494447065
0.9387887196
0.7764435404
0.7794794491
0.8053007523
0.9362286949
0.8136120193
0.8552833043
0.7768460075
0.9308939825
0.7756914811
0.8475537738
0.8964245878
0.8620423796
0.9405439824
0.9026669179
0.7728854845
0.7989542340
0.8393965542
0.7991782403
0.8069980059
0.9311465681
0.8804069057
0.9382781973
0.8686037344
0.8254951057
0.8606013086
0.8794040077
0.7812056730
0.9466300284
0.8951350960
0.9251179726
0.9466239739
0.8836452850
0.7864062452
0.8778190642
0.7832997193
0.8435718148
0.8010574344
0.8315128980
0.8826822474
0.7718425466
0.9236871092
0.9523500647
0.8272525196
0.9309165002
0.8777607368
0.8921963519
0.9446256153
0.7583941441
0.7949042616
0.9047880403
0.7839580418
0.8308572080
0.8524084547
0.9712773454
0.9580258222
0.8010525888
0.8639333414
0.9605672394
0.8583034048
0.9413160909
0.9619468440
0.7669894755
0.7828985196
0.8265749084
0.8281474389
0.9521392293
0.8102151261
0.9487978447
0.9052238781
0.8988837877
0.9443444487
0.8664015259
0.8335171884
0.8542849473
0.8842982671
0.7767768296
0.9470794800
0.9136374829
0.9353444257
0.8880083313
0.7846112221
0.8946288667
0.7899001517
0.8537302755
0.8537259173
0.8800212824
0.7694906696
0.9353607828
0.9504494708
0.8535763462
0.9141800294
0.8736307468
0.9417801011
0.7569362256
0.7856950619
0.8318958468
0.8814968113
0.7857182677
0.8315252466
0.9657225252
0.9484268118
0.8102260065
0.8507413494
0.9552080403
0.8390111353
0.9256218616
0.9724419398
0.7628329876
0.7824914945
0.8222542483
0.8454947297
0.7845563807
0.9402387334
0.9760455357
0.9920288443
0.9362437093
0.7868194427
0.7859580007
0.8613773085
0.8136282249
0.9143309956
0.8052310354
0.7770653269
0.8548821728
1.0100490075
0.7707730634
0.7847949075
0.7755218433
0.9426526622
0.8293768714
0.7901987070
1.0052551045
0.9105105450
0.7974882283
0.9376822062
0.9723279306
0.8238910185
0.7996613348
0.8463131376
0.8463203644
0.7920764093
0.7779861248
0.8098381845
0.9881029670
0.8310129913
0.8628501557
0.7632279886
0.7778755982
0.8067659925
0.9224293138
0.7905469763
0.8025389326
0.7949623129
0.7876942253
0.9269431013
0.7802595638
0.9421847037
0.9929293247
0.9816321976
0.9278204915
0.7883456250
0.8343780317
0.8053215021
0.9064493874
0.7736001380
0.8628543930
1.0026521805
0.7665542711
0.7794922296
0.7733367096
0.9385123762
0.8222566050
0.7879596499
1.0110363802
0.8875670675
0.7905641424
0.9464936996
0.9527087809
0.8231188681
0.8018396150
0.8552891248
0.8164469954
0.7914498964
0.7879874299
0.7899377545
0.9861189908
0.8381785072
0.7603988697
0.7764558356
0.7948260039
0.7991798775
0.9291678536
0.7826224046
0.7974675203
0.7929381646
0.9121078707
0.8715245576
0.7707846876
0.7902107785
0.8836418528
0.7632376803
0.8951283151
0.8714080183
0.7992115121
0.8687979036
0.8606050107
0.8363321343
0.7692561212
0.8543089646
0.9573572440
0.8012948999
0.8500513802
0.7930338966
0.7929586852
0.8609654585
0.8500488843
0.8107383032
0.8826793939
0.8266292079
0.9236448486
0.9430238274
0.8843626342
0.8182718384
0.9573892964
0.8448674612
0.7930251912
0.9311535945
0.9025515585
0.8818013906
0.7964873240
0.8069787683
0.7753408181
0.8794007091
0.8391997769
0.8711970775
0.8848751854
0.9384871169
0.8207212714
0.8162912623
0.9477525501
0.9629143779
0.8441150797
0.8935280177
0.9743354406
0.8154769494
0.8083307376
0.8935318052
0.9335655641
0.7845767612
0.8797936515
0.8588144826
0.7832121861
0.7755367125
0.9208581628
0.8742921711
0.7665645549
0.7879755597
0.8827153885
0.7604089856
0.8842935350
0.8711965730
0.8888728788
0.7949889897
0.8689137171
0.8646251940
0.8389074757
0.7668291405
0.8560010221
0.7973507734
0.7950167524
0.7920908497
0.8636098587
0.8362645387
0.8592298074
0.8841728288
0.8296333134
0.9475232862
0.9316468377
0.9605970162
0.8476835309
0.7882560778
0.9121708809
0.8808671896
0.7990035677
0.7733916696
0.8800178679
0.9743008842
0.8827174267
0.8843853779
0.8223355334
0.8201115743
0.9488224983
0.9697768182
0.8099647146
0.8107538073
0.9124445091
0.9619858212
0.7802792580
0.8780919394
0.8744124023
0.7781593384
0.7733486234
0.9053184064
0.7914615615