<VTKFile type="UnstructuredGrid" version="0.1">
	<UnstructuredGrid>
		<Piece NumberOfPoints="1862" NumberOfCells="3498">
			<CellData>
				<DataArray type="Int32" Name="type" NumberOfComponents="1" Format="ascii">
0
0
0
0
0
0
0
0
0
0
0
0
0
0
0
0
1
0
0
1
0
0
0
0
0
0
0
0
0
0
0
0
0
1
0
0
0
0
0
0
0
0
0
0
0
0
0
0
0
0
1
0
0
0
0
0
0
0
0
0
0
1
0
0
0
0
0
0
0
0
0
0
0
0
0
0
0
0
0
0
0
0
0
0
0
0
0
0
0
0
0
0
0
0
0
0
0
0
0
0
0
0
0
0
0
0
0
0
0
0
0
0
0
0
0
0
0
0
0
0
0
0
0
1
0
0
0
0
0
0
0
0
0
0
0
0
0
0
0
0
0
0
0
0
0
0
0
0
0
0
0
1
0
1
1
0
0
0
0
0
0
0
0
0
0
0
0
0
1
0
1
0
0
0
0
1
0
0
0
0
0
0
0
0
1
1
0
0
0
0
0
1
0
0
0
0
0
0
0
0
1
0
0
0
0
0
0
0
0
0
0
0
0
0
0
0
0
0
0
0
0
0
0
0
0
0
0
0
0
0
0
0
0
1
0
0
0
0
0
0
0
0
0
0
0
0
0
0
0
0
0
0
0
0
0
0
0
0
0
0
0
0
0
0
0
0
0
0
0
0
0
0
0
0
0
0
0
0
0
0
0
1
0
0
0
0
0
0
0
0
0
0
0
0
0
0
0
0
0
0
0
0
0
0
0
0
0
0
0
0
0
0
0
0
0
0
0
0
0
0
0
0
0
0
0
0
0
0
0
0
0
0
1
0
0
0
0
0
0
0
0
0
0
0
0
0
0
0
0
0
0
0
0
0
0
0
0
0
0
0
0
0
0
0
0
0
0
0
0
0
0
0
0
0
0
0
0
0
0
0
0
0
0
0
0
0
0
0
0
0
1
0
0
0
0
0
0
0
0
0
0
0
0
0
0
0
0
0
0
0
0
0
0
0
0
0
0
0
0
0
0
0
0
0
0
0
0
0
0
0
0
0
0
0
0
0
0
0
0
0
0
0
0
0
0
0
0
0
0
0
0
0
0
0
0
0
0
0
0
0
0
0
0
0
0
0
0
0
0
0
0
0
0
0
0
0
0
0
0
0
0
0
0
0
0
0
0
0
0
0
0
0
0
0
0
0
0
0
0
0
0
0
0
0
0
0
0
0
0
0
0
0
0
0
0
0
0
0
0
0
0
0
0
1
0
0
0
0
0
0
0
0
0
0
0
0
0
0
0
0
0
0
0
1
0
0
0
0
0
0
0
0
0
0
0
0
0
0
0
0
0
0
0
0
0
0
0
0
0
0
0
0
0
0
0
0
0
0
0
0
0
0
0
0
0
0
0
0
0
0
0
0
0
0
0
0
0
1
0
0
0
0
0
0
0
0
0
0
0
0
0
0
0
0
0
0
0
0
0
0
0
1
0
0
0
0
0
0
0
0
0
0
0
0
0
0
0
0
0
0
0
1
0
0
0
1
0
0
0
0
0
0
0
0
0
0
0
0
0
0
0
0
0
0
0
0
0
0
0
0
0
1
0
0
0
0
0
0
0
1
0
0
0
0
0
0
0
0
0
0
0
0
0
0
0
0
0
0
0
0
0
0
0
0
0
0
1
0
0
0
0
0
0
0
1
0
0
0
0
0
0
1
0
0
0
0
0
0
0
0
0
0
0
0
0
0
0
0
0
0
0
0
0
0
0
0
0
0
0
0
0
0
0
0
0
0
0
0
0
0
1
0
0
0
0
0
1
0
0
0
0
0
0
0
1
0
0
0
0
0
0
0
0
0
0
0
0
0
1
0
0
0
0
0
0
0
0
0
0
0
0
0
0
0
0
0
0
0
0
0
0
0
0
0
0
0
0
0
0
0
0
0
0
0
0
0
0
0
0
0
0
0
0
0
0
0
0
0
0
0
0
0
1
0
0
0
0
0
0
0
0
0
0
0
0
0
0
0
0
0
0
0
1
0
0
0
0
0
0
0
0
0
1
0
0
0
0
0
0
0
0
0
0
0
0
0
0
0
0
0
0
0
0
0
0
0
0
0
0
0
0
0
1
0
1
0
0
0
0
0
0
0
0
0
0
0
0
0
0
0
0
0
0
0
0
0
0
0
0
0
0
0
1
0
0
0
1
0
0
0
0
0
0
0
0
0
0
0
0
0
0
0
0
0
0
0
0
0
0
0
0
0
0
0
0
1
0
0
0
0
0
0
0
0
0
0
0
0
0
0
0
0
0
0
0
0
0
0
0
0
0
1
0
0
0
0
0
0
0
0
0
0
0
0
0
0
0
0
0
0
0
0
0
0
0
1
0
0
0
0
0
0
1
0
0
0
0
0
0
0
0
0
0
0
1
0
0
0
0
0
0
0
0
0
0
0
0
0
0
0
0
0
0
0
0
1
0
0
0
0
0
0
0
0
0
0
0
1
0
0
0
0
0
0
0
0
0
0
0
0
0
0
0
0
0
0
0
0
0
1
0
0
0
0
0
0
0
0
0
1
1
0
1
0
1
0
0
0
0
0
0
0
0
0
0
0
1
0
0
0
0
0
1
1
0
0
0
0
0
0
1
0
0
0
0
0
1
1
1
0
0
0
0
0
0
0
0
0
0
0
0
1
1
0
0
1
0
0
0
0
0
1
0
0
0
1
0
1
0
0
0
0
0
0
0
1
0
0
0
0
0
0
0
1
0
0
1
0
0
0
0
0
0
0
0
0
0
0
0
0
0
0
1
0
0
0
0
0
0
0
0
0
0
0
0
0
0
0
0
0
0
0
0
0
0
0
0
0
0
0
0
0
0
0
0
0
0
0
0
1
0
0
0
0
0
0
1
0
0
0
1
0
0
0
0
0
0
0
0
0
0
0
1
0
0
0
0
0
0
0
0
0
0
0
0
0
0
0
0
0
0
0
0
0
0
0
0
0
0
0
0
0
0
0
0
0
0
0
0
0
0
0
0
1
1
0
0
0
0
0
0
0
0
0
0
0
0
0
1
0
0
0
0
0
0
0
0
0
0
0
0
0
0
0
0
0
0
0
0
0
0
0
0
0
0
0
0
0
0
0
0
0
0
0
0
0
0
0
0
0
0
0
0
0
0
0
0
0
0
0
0
0
0
0
0
0
0
0
0
0
0
0
0
0
0
0
0
0
0
0
0
1
1
0
0
0
0
0
0
0
0
1
0
0
0
0
0
0
0
0
0
0
0
0
0
0
0
0
0
0
0
0
0
0
0
1
0
0
0
0
0
0
0
0
0
0
0
0
0
0
0
0
1
0
0
0
0
0
0
0
0
0
0
0
0
0
0
0
0
0
0
0
0
0
0
0
0
0
0
0
0
0
0
0
0
0
0
0
0
0
0
0
0
0
0
0
0
0
0
0
0
0
0
0
0
0
0
0
0
0
0
0
0
0
0
0
0
0
0
0
0
0
0
0
0
0
0
0
0
0
0
0
0
0
0
0
0
0
0
0
0
0
0
1
1
0
0
0
0
0
1
0
0
0
0
0
0
0
0
0
0
0
0
1
0
0
0
0
0
0
0
0
0
0
0
0
0
0
0
0
0
0
0
0
0
0
0
0
0
0
0
0
0
0
0
0
0
0
0
0
0
0
0
0
0
0
0
0
0
0
0
0
0
0
0
0
0
1
0
1
0
0
0
0
0
0
0
0
0
0
0
0
0
0
0
0
0
0
1
0
0
0
0
0
0
0
0
0
0
0
0
0
0
0
0
0
0
0
0
0
0
0
0
0
0
0
0
0
0
0
0
0
0
0
0
0
0
0
0
0
0
0
0
0
0
0
0
0
0
0
0
0
0
0
0
0
0
0
0
0
0
0
0
0
0
0
0
0
0
1
0
0
0
0
0
0
0
0
0
0
1
0
0
0
0
0
0
0
0
0
0
0
0
0
0
0
0
0
0
0
0
0
0
0
0
0
0
0
0
0
0
0
0
0
0
0
0
0
1
0
0
0
0
0
0
0
0
0
0
0
0
0
0
0
0
0
0
0
0
0
0
0
0
0
0
0
0
0
0
0
0
0
0
0
0
0
0
0
0
0
0
0
0
0
0
0
0
0
0
0
0
0
0
0
0
0
0
0
0
0
0
0
0
0
0
0
0
0
0
0
0
0
0
0
0
0
0
0
0
0
1
0
0
0
0
0
0
0
0
0
0
0
0
0
0
0
0
0
0
0
0
0
0
0
0
0
0
0
0
0
0
0
0
0
0
0
0
0
0
0
0
0
0
0
0
0
0
0
0
0
0
0
0
0
0
0
0
0
0
0
0
0
0
0
0
0
0
0
0
0
0
0
0
0
0
0
0
0
0
0
0
0
0
0
0
0
0
0
0
0
0
0
0
0
0
0
0
0
0
0
0
0
0
0
0
0
0
0
0
0
0
0
0
0
0
0
0
0
0
0
0
0
0
0
1
0
0
0
0
0
0
0
0
0
0
0
0
0
0
0
0
0
0
0
0
0
0
0
0
0
0
0
0
0
0
0
0
0
0
0
0
0
0
0
0
0
0
0
0
0
0
0
0
0
0
0
0
0
0
0
0
0
0
0
0
0
0
0
0
0
0
0
0
0
0
0
0
0
0
0
0
0
0
0
0
0
1
0
0
0
0
0
0
0
1
0
0
0
0
0
0
0
0
0
0
0
0
0
0
0
0
0
0
0
0
0
0
0
0
0
0
0
0
0
0
0
0
0
0
0
0
0
1
0
0
0
0
0
0
0
0
0
0
0
0
0
0
0
0
0
0
0
0
0
1
0
0
0
0
0
0
0
0
0
0
0
0
1
1
0
0
0
0
0
0
0
0
0
0
0
0
0
0
0
1
1
0
1
0
0
0
0
0
0
0
0
0
1
0
0
0
0
0
0
1
0
0
0
0
0
0
0
0
0
0
1
0
0
0
0
1
0
1
0
0
0
0
0
0
0
1
0
0
0
1
0
0
0
1
0
1
1
0
0
1
1
0
0
0
1
0
0
0
1
0
0
0
0
0
0
0
0
0
1
0
0
0
0
0
0
1
0
0
0
0
0
0
0
0
0
0
0
0
0
0
0
0
0
0
0
0
0
0
0
0
0
0
0
1
0
0
1
0
0
0
0
0
0
0
0
0
0
0
0
0
0
0
0
0
0
1
0
0
1
0
0
0
0
0
0
0
0
0
0
0
1
0
0
1
0
0
0
0
0
0
0
0
0
0
0
1
1
0
0
0
0
0
0
0
0
0
0
0
0
1
0
0
0
0
0
0
0
0
0
0
0
0
0
0
0
0
0
1
0
0
0
0
0
0
0
0
0
0
0
0
0
0
0
0
0
1
0
0
0
0
0
0
0
0
0
0
0
0
0
0
0
0
0
0
0
0
0
0
0
0
0
0
0
0
0
0
0
0
0
0
0
0
0
0
0
0
1
0
0
0
0
0
0
0
0
0
0
0
0
0
0
0
0
0
0
0
0
0
0
0
0
0
0
0
0
0
0
0
0
0
0
0
0
0
0
0
0
0
0
0
0
0
1
0
0
0
0
0
0
0
0
0
0
0
0
0
0
0
0
0
0
0
0
0
0
0
0
0
0
0
0
0
0
0
0
0
0
0
0
0
0
0
0
0
0
0
0
0
0
0
1
0
0
0
0
0
0
0
0
0
0
1
0
0
0
0
0
0
0
0
0
0
0
0
0
0
0
1
0
0
1
0
0
0
0
0
0
0
0
0
0
0
0
0
0
0
0
0
0
0
0
0
0
0
1
0
0
0
0
0
0
0
0
0
0
0
0
0
0
0
0
0
0
0
0
0
0
0
0
0
0
0
0
0
0
0
0
0
0
0
1
0
0
0
0
0
0
0
0
0
0
0
0
0
0
0
0
0
0
0
0
0
0
0
0
0
0
0
0
0
0
0
0
0
0
0
0
0
0
0
0
0
0
0
0
0
0
0
0
0
0
0
0
0
0
0
0
0
0
0
0
0
0
0
0
0
0
0
0
0
0
0
0
0
0
0
0
1
0
0
0
0
0
0
0
0
0
0
0
0
0
0
0
0
0
0
0
0
0
0
0
0
0
0
0
0
0
0
0
0
0
0
0
0
0
0
0
1
0
0
0
0
0
0
0
0
0
0
0
0
1
1
0
0
0
0
0
0
0
0
0
0
0
0
0
0
0
0
0
0
0
0
0
0
0
0
0
0
0
0
0
0
0
0
0
0
0
0
0
0
0
0
0
0
0
0
0
0
0
0
0
0
0
0
0
0
0
0
0
0
0
0
0
0
0
0
0
0
0
0
0
0
0
0
0
0
0
0
0
0
0
0
0
0
0
0
0
0
0
0
0
0
0
0
0
0
0
0
0
0
0
0
0
1
0
1
0
0
0
0
0
0
0
1
1
1
1
0
0
0
0
0
0
0
0
0
0
0
0
0
0
0
0
0
0
0
0
0
0
0
0
0
0
0
0
1
1
0
0
0
0
0
0
0
0
0
0
0
0
0
0
0
0
0
0
1
0
0
0
0
0
0
0
1
1
0
1
1
0
0
1
0
0
0
0
0
0
0
1
0
1
0
0
0
0
0
0
0
0
0
0
0
0
0
0
0
0
0
0
0
0
0
0
0
0
0
0
0
1
1
0
0
0
1
1
0
0
0
0
1
0
0
1
0
1
0
0
0
0
0
1
0
0
0
1
0
0
0
0
0
0
0
0
0
0
0
0
0
0
0
0
0
0
0
0
0
0
0
0
0
0
0
1
0
0
0
0
0
0
1
0
0
0
0
0
0
0
0
0
0
0
0
0
0
0
0
0
0
0
0
0
0
0
0
0
0
0
0
0
1
0
1
0
0
0
0
0
0
0
1
0
0
0
0
0
0
0
0
0
0
0
1
0
0
0
0
0
0
0
0
0
1
0
0
0
0
0
0
0
1
0
0
0
0
0
0
0
1
0
0
0
0
0
0
0
0
0
0
0
0
0
0
0
0
0
0
0
1
0
1
0
0
0
0
0
1
0
0
0
0
0
0
0
0
0
0
0
0
0
0
0
0
0
0
0
0
0
0
0
0
0
1
0
1
0
0
0
0
0
0
0
0
0
1
0
0
0
0
0
1
0
0
0
0
0
0
0
0
0
0
0
0
0
0
0
1
0
0
0
0
0
0
0
0
1
0
0
0
0
0
0
0
0
0
0
0
0
0
0
0
0
0
0
0
0
0
0
0
0
0
0
0
0
0
0
1
0
0
0
0
0
0
0
0
0
0
0
0
0
0
0
0
1
0
0
0
0
0
0
0
0
1
0
0
0
0
0
0
0
0
0
1
0
0
0
0
0
1
0
0
0
0
0
0
0
0
0
0
0
0
0
0
0
0
0
0
0
1
0
0
0
0
0
0
1
0
0
0
0
0
0
0
0
1
0
0
0
0
0
0
0
0
0
0
0
0
0
0
1
0
0
1
0
0
0
1
0
0
0
0
0
0
0
0
0
0
0
0
0
0
0
0
1
0
0
0
0
0
0
0
0
0
0
1
0
1
0
0
0
0
0
0
1
0
0
0
0
0
0
0
0
0
0
0
0
0
0
0
0
0
0
0
0
0
0
0
0
0
0
0
1
1
0
0
0
0
0
0
1
0
0
0
0
0
0
0
0
0
0
0
0
0
1
0
0
0
0
0
0
0
1
0
0
0
0
0
0
0
0
0
0
0
0
0
0
0
0
0
0
0
0
0
0
0
0
0
0
0
1
0
0
0
0
0
0
0
0
0
0
1
0
0
1
0
0
0
0
0
0
0
0
0
0
0
0
0
0
0
0
0
0
0
0
0
0
0
0
0
0
0
0
0
1
0
0
0
0
0
0
0
1
0
0
0
0
0
0
0
1
0
0
0
0
1
0
0
0
0
0
0
0
0
0
0
0
1
0
1
0
0
0
1
0
				</DataArray>
				<DataArray type="Float64" Name="h" NumberOfComponents="1" Format="ascii">
0.9210564475
0.9211043632
0.9106110857
0.9194260696
0.9097319123
0.9129096834
0.9153761325
0.9227845048
0.9184295506
0.9278251200
0.9216323570
0.9139897635
0.9225654454
0.9245255302
0.9225975619
0.9252946960
0.9164275331
0.9269545583
0.9196536080
0.9222799352
0.9054564583
0.9210018294
0.9132204857
0.9055207697
0.9191145420
0.9290684325
0.9130261918
0.8842666664
0.9086404026
0.9262035209
0.9243344310
0.9138738111
0.9201397980
0.9095673017
0.8878439545
0.9022752540
0.8957563967
0.9090124446
0.8817703562
0.9033520073
0.9082330077
0.8854214750
0.9141841035
0.9042411917
0.9011416124
0.8917622732
0.9101035714
0.8820252634
0.8426579350
0.8412630213
0.9014293288
0.8981656310
0.9045375496
0.8606158751
0.8908091122
0.9091335911
0.8922601891
0.8714647186
0.8675641035
0.8666941363
0.8616827816
0.8643997310
0.8457449063
0.8977512761
0.8983364825
0.8696060477
0.8396158155
0.8448293960
0.8639062518
0.8678569701
0.8660234284
0.8900721682
0.9037413306
0.8570293667
0.8626870920
0.8654724677
0.8714766532
0.8593980530
0.8763026560
0.8724809795
0.8564969678
0.8636964996
0.8405546691
0.8436036220
0.8794212918
0.8592883465
0.8544016634
0.8417879018
0.8555203395
0.8400822617
0.8522309566
0.8660731191
0.8575531452
0.8386826571
0.8545669489
0.8604442408
0.8424944014
0.8786100531
0.8740708094
0.8543860405
0.8409071715
0.8570510018
0.8515982378
0.8759730550
0.9312166067
0.8380691616
0.8458707211
0.8428471599
0.8601134052
0.8559787913
0.8381880467
0.8399729338
0.8532264560
0.8493196714
0.8501799655
0.8474827371
0.8531535930
0.9310064099
0.8465014529
0.8498417107
0.9313361615
0.8443699291
0.8512702433
0.9345029668
0.8501137904
0.8435819001
0.8516574154
0.9351324362
0.8493115760
0.8461559896
0.8493556874
0.8472215186
0.8508268475
0.8490831993
0.9302354944
0.8493515687
0.9307789918
0.8471576574
0.8540238349
0.9221809019
0.9358910113
0.9323403205
0.8481007931
0.9162267140
0.8520912985
0.8516251832
0.9263231331
0.8429313464
0.9334280174
0.8423945066
0.9319381362
0.8473660358
0.8455185458
0.8437932124
0.8550398230
0.8450598591
0.8452430099
0.9337837039
0.8429374958
0.9380029625
0.9198042836
0.8438544161
0.9287177091
0.9361607506
0.9344617107
0.8432352870
0.9081529102
0.9255360436
0.9369114601
0.8435971389
0.8456627368
0.9381040555
0.8442560747
0.9340430389
0.9033451165
0.8437458475
0.9126157186
0.8394471324
0.8436589532
0.9363149548
0.8450405256
0.8919129635
0.9381606603
0.8438764671
0.9381909043
0.9399181138
0.8979852224
0.8431147366
0.9377011773
0.9404154496
0.8789060271
0.8435050845
0.9393654183
0.8857070810
0.8439408909
0.8409720604
0.9353812829
0.8651189710
0.8722072420
0.8405343276
0.9404867497
0.8382576839
0.9401863180
0.8424100397
0.8505238416
0.9381362849
0.9244160211
0.9319343396
0.8580553598
0.9117635173
0.8789174101
0.9393683877
0.9369976212
0.9393355835
0.9285982127
0.8649487085
0.9188861445
0.9365307371
0.8916269254
0.9388693928
0.8440386891
0.8356895069
0.9026866636
0.8304010299
0.8322025059
0.8389997920
0.8384535377
0.8279387797
0.8371393862
0.8374857627
0.8409339823
0.8331621631
0.8290081605
0.8394991016
0.8387885149
0.8283564267
0.8720818103
0.9213036457
0.9396879725
0.9067991510
0.8723085865
0.9300870267
0.9373649105
0.9073449478
0.9303960558
0.9221060231
0.9375743511
0.8853355889
0.9262932169
0.9354752274
0.9148714212
0.8852823170
0.9359210217
0.8579801611
0.8582953926
0.9386888549
0.9155579051
0.9269476051
0.9393600141
0.8308071278
0.8968981176
0.8259064811
0.8215485007
0.8245863343
0.8276478403
0.8372421877
0.8366397773
0.8375323323
0.8382141044
0.8308133941
0.8350669659
0.8972219610
0.8360815750
0.8260040411
0.8278939306
0.8316409105
0.8226931542
0.8223334903
0.8276683766
0.8317004777
0.8373546657
0.8371425330
0.8374677737
0.8363184406
0.8333934599
0.8337211806
0.8259374351
0.9175984761
0.9364011920
0.9360653673
0.9181592586
0.8656643221
0.9277469287
0.9283085226
0.9016055850
0.8661458161
0.9017725862
0.9233142531
0.9339118241
0.9386814319
0.9369760996
0.9239196767
0.8788586504
0.8528542707
0.8521273766
0.9104155486
0.8790159215
0.9108068578
0.9344368605
0.8209931850
0.8197559023
0.8157155695
0.8355628292
0.8324082491
0.8310021440
0.8248517727
0.8911989704
0.8312047912
0.8338322651
0.8910707596
0.8186397248
0.8215005803
0.8254142396
0.8345155725
0.8169808898
0.8196016862
0.8163428235
0.8348898333
0.8217387669
0.8282377813
0.8332675666
0.8331549127
0.8343901427
0.8271781759
0.8218847131
0.8260073344
0.8285950064
0.9138249772
0.8220144176
0.8963714074
0.8611031708
0.8962359106
0.9347569993
0.8602616883
0.9248490466
0.9135332324
0.9254193391
0.9343539828
0.8152558556
0.8074001514
0.8483788451
0.8024150549
0.9203002604
0.9325132237
0.8155982955
0.9057550139
0.8011623345
0.8735669331
0.9058036425
0.8031460975
0.8087368364
0.8157464105
0.9369761620
0.8730436200
0.8472001544
0.9198379640
0.8209893075
0.8101740167
0.8010496382
0.9350643183
0.7976274403
0.8067719331
0.9318586684
0.8304691634
0.8187953924
0.8128468352
0.8310660911
0.9226174960
0.8264874897
0.8170925055
0.8280440487
0.8259275422
0.8325339581
0.8855329380
0.8197250106
0.8852445022
0.8166117180
0.8137882949
0.8107275479
0.8864824550
0.8311845170
0.8234757086
0.8157080511
0.8359948197
0.8297103635
0.8160331683
0.9182963119
0.9071355329
0.9012230851
0.8576366502
0.8126458099
0.8287015597
0.8679303397
0.8224300409
0.8468520027
0.8317592167
0.8233081228
0.8215152014
0.8140194093
0.8776487973
0.8108511370
0.8131846439
0.8106580870
0.8057756650
0.9092888532
0.8175144477
0.8178700907
0.8910594836
0.8052799935
0.8096375203
0.8195626923
0.8297774290
0.9219927545
0.8122327312
0.8144535392
0.8050174318
0.8238795544
0.9326528646
0.8035206491
0.8553723536
0.8031961759
0.8118615400
0.7983243277
0.8098059518
0.7984551355
0.8008568841
0.7976300916
0.8143760471
0.8226972257
0.8186485286
0.8043863224
0.7933403755
0.9163015053
0.7951960508
0.8082148636
0.9009144992
0.8061715313
0.7987096525
0.8073154352
0.7990077340
0.7952524244
0.8249909887
0.9350683158
0.8154946555
0.8676379372
0.8297751717
0.8058814168
0.8046128935
0.7965303237
0.8049889085
0.9300627541
0.8430321460
0.9047928298
0.8290048333
0.8799674347
0.8128420111
0.8044245315
0.8126640974
0.8493440054
0.9181941573
0.8270845386
0.8862207654
0.8202590018
0.8638556334
0.8250210363
0.8087259901
0.8003846304
0.8795048023
0.9300099505
0.9196812663
0.9163263796
0.8402757751
0.9121305105
0.8281058498
0.7919249615
0.7962169261
0.8235583032
0.9121678422
0.8100284501
0.9042643106
0.8030243902
0.8181672311
0.7975995119
0.9270599865
0.9183032244
0.8943535442
0.8959649151
0.7947914432
0.8164823092
0.9128357714
0.7903803681
0.7926894587
0.8879773144
0.9012309855
0.8576363223
0.8753284579
0.8095470040
0.9326312286
0.8290753695
0.7975890394
0.9121596533
0.8520050428
0.7921972039
0.8862264549
0.8180276300
0.9300124962
0.7929148185
0.8107959605
0.9293686957
0.8873532789
0.8520064418
0.7996847378
0.8035812991
0.8185320102
0.9049903237
0.7953762425
0.9118798268
0.7952198898
0.8276872972
0.8540754192
0.7966087485
0.9047974180
0.7951004894
0.9178300832
0.9181964916
0.8560887094
0.9270623742
0.8959703837
0.9326324370
0.8276869818
0.8402755527
0.8662759429
0.8969725900
0.9319985812
0.8837164255
0.8967347237
0.9144056934
0.8638586569
0.8755980046
0.9020110645
0.8067475911
0.8909068326
0.9120376926
0.8348591230
0.9262665699
0.8246323550
0.8424583530
0.9061712247
0.8018107237
0.8070288639
0.8656943168
0.9096437249
0.8046114822
0.9121338421
0.8454971570
0.8143847221
0.8753331912
0.8044263409
0.7938874704
0.8250013402
0.8768658416
0.7979407571
0.7916510202
0.7943763540
0.8096295367
0.9261651442
0.8226259504
0.8096392737
0.7921954482
0.8630986553
0.8931423684
0.8073347307
0.7903793694
0.9090318522
0.8027636042
0.9140624377
0.8226945432
0.8106796515
0.8061673671
0.9028315627
0.8238868679
0.8576498310
0.8954271377
0.8452230092
0.8999517311
0.8154858269
0.8518669108
0.9289155644
0.7975968881
0.8700922522
0.8382025001
0.8738859554
0.7981262024
0.9012493063
0.8050279901
0.8950418003
0.8746823653
0.7931180684
0.8178662294
0.9043409183
0.8828267506
0.9188964721
0.7914334880
0.9048105262
0.8096390598
0.9082308585
0.7936692698
0.9178349134
0.8768692854
0.8540765569
0.9049955875
0.8085567078
0.8153716765
0.9229139778
0.9293718320
0.8839538431
0.9035069541
0.7895301303
0.9262701761
0.8986956529
0.8746832639
0.9027795102
0.8946377611
0.8424581591
0.8873578297
0.8656964420
0.9120429351
0.7885143289
0.7901050230
0.7898562228
0.7974684510
0.9320013924
0.8827173993
0.8654942045
0.8590792326
0.7993850013
0.7901683326
0.8348589624
0.8897134134
0.7948042284
0.9040162556
0.8889076782
0.9233907548
0.9105112865
0.9029749494
0.8696641147
0.8479730251
0.8967397438
0.7888922608
0.8971556645
0.9261410036
0.9156868829
0.7911534104
0.7886573068
0.7907669051
0.7900457409
0.9034627491
0.8797012789
0.9199469188
0.9043452902
0.7935518096
0.7931484635
0.8560887633
0.8893858670
0.8656950424
0.9014045653
0.7882948779
0.9017242948
0.8989437012
0.7904675098
0.7897813886
0.8782485363
0.8853746818
0.7887226821
0.8913096069
0.8949410700
0.9037843035
0.7887967124
0.7905346666
0.7888151715
0.8966950210
0.9009396181
0.9031862266
0.9040117770
0.9020872746
0.7889246121
0.7890043113
0.7894671019
0.7891255795
0.9036253268
0.7892035832
0.7887674041
0.9047091227
0.7901066680
0.7903507265
0.9043457239
0.7897736683
0.8909117370
0.7895757501
0.9062120446
0.9024765066
0.7906143598
0.9048161415
0.7899412709
0.7914631541
0.9096516766
0.7917040154
0.9092856942
0.9078717760
0.7922629905
0.7946870994
0.9175972870
0.9164303392
0.9160105744
0.9160602878
0.9164803111
0.9167000741
0.9139727001
0.9216062244
0.9218693766
0.9115580466
0.9128845539
0.9097640750
0.9115960466
0.9184596933
0.9225656790
0.9153432918
0.9266495774
0.9219017134
0.9167241366
0.9249702554
0.9269367786
0.9194483334
0.9106334739
0.9196059433
0.9261776248
0.9259314403
0.9129364388
0.9228162662
0.9290597048
0.9190987690
0.9278441829
0.9232390607
0.9226037318
0.9081054726
0.9233756296
0.9179795156
0.9266729353
0.9243166434
0.9250030710
0.9095603311
0.9200997807
0.9137977277
0.9172497576
0.9033317483
0.8861253186
0.9164382170
0.9253166175
0.9141165651
0.8816623833
0.9129489688
0.9259523951
0.9081786966
0.9245494727
0.9222917821
0.9081218862
0.9132933382
0.8796676772
0.9210422910
0.8995032780
0.9232770521
0.9054653571
0.9180433411
0.9170644176
0.8774660160
0.8820190172
0.9234017642
0.9011104106
0.9014240303
0.9100092467
0.8843628895
0.9055455352
0.9086999128
0.8921787048
0.8916483636
0.9130910546
0.8921083511
0.9281524223
0.8862302320
0.8852519925
0.8856962333
0.9172955106
0.9044480477
0.8796695139
0.8414012327
0.8460503992
0.9171252278
0.8995173695
0.8946131020
0.8775187860
0.9023144894
0.8982260747
0.9091000186
0.8824777651
0.8878534190
0.8457665864
0.8448439892
0.8783258497
0.8957626804
0.8977083013
0.8852653883
0.8747472825
0.8707746927
0.9043326573
0.8570483069
0.8669126492
0.8900559641
0.9036549350
0.8683828461
0.8920802484
0.8972217108
0.8921216821
0.8615946948
0.8857017689
0.8854559589
0.8714769659
0.8660279981
0.8574140853
0.8626984381
0.8917558823
0.9046708385
0.8639069574
0.8916804940
0.9281707289
0.8678538738
0.8946328408
0.8824839363
0.8680931488
0.8783594704
0.8454755017
0.8778842499
0.8395172376
0.8426291722
0.8982236038
0.8460341034
0.8918579308
0.8636747707
0.8436175075
0.8720275416
0.8413774605
0.8412441828
0.8616808624
0.8644013345
0.9047656285
0.8583983813
0.8573904851
0.8675585958
0.8724022010
0.8669025696
0.8722345467
0.8984940230
0.8747473467
0.8916863502
0.8786682995
0.8908336133
0.8646128184
0.8683830577
0.8615961960
0.9092020962
0.8646998694
0.8622151234
0.8921716433
0.8606024654
0.8707689946
0.8666825476
0.8660111317
0.8714668381
0.8973254802
0.8575598378
0.8454528179
0.8759679694
0.8739813211
0.8720305873
0.8854663663
0.8778818224
0.8570537570
0.8378262913
0.8558717534
0.8450284067
0.8696596412
0.8409486605
0.8396041628
0.8805696991
0.8785116698
0.8588739007
0.8603944410
0.8722203340
0.8395098328
0.8543947049
0.8380656604
0.8681627526
0.8411898237
0.8647088794
0.8601220810
0.8400137767
0.8583968827
0.8622036680
0.8532355929
0.8786682958
0.8655323430
0.8363926000
0.8723959952
0.8593921426
0.8985776893
0.8513758014
0.8722881555
0.8382143163
0.8559577642
0.8646088988
0.8558655064
0.8411576347
0.8598789587
0.8588720340
0.8593481984
0.8443700811
0.8552279418
0.8805745371
0.9317008894
0.8722166059
0.8450106198
0.8795022129
0.8725675466
0.8543958290
0.8405146183
0.8564916517
0.8531621400
0.8763054861
0.8378293018
0.9313246583
0.8417868192
0.8855478425
0.8513620503
0.8471911037
0.8359827443
0.9307361883
0.8436139657
0.8533927817
0.8491633077
0.8555032858
0.8546007704
0.8386470241
0.8455693467
0.8400373352
0.8522175637
0.8462695773
0.8714505633
0.8501275563
0.8516773160
0.8363835300
0.8461621494
0.8516010169
0.8436478322
0.8339332494
0.8598715755
0.9317094187
0.8552047833
0.8462883916
0.9302195817
0.8493757961
0.8508530621
0.9312268030
0.8425137640
0.8520206036
0.8338088049
0.9323250721
0.8496926501
0.9307442647
0.8455371085
0.8493013886
0.8428107439
0.9291230827
0.8714538304
0.8491494686
0.8501650326
0.9334129788
0.8359775625
0.8480993117
0.9354952470
0.8475169343
0.8533809063
0.8516509826
0.8462471120
0.8459126702
0.9325278551
0.8579463914
0.8319327960
0.8469675472
0.8436178175
0.8462686017
0.9332562083
0.8473714950
0.8433072392
0.8534877559
0.8498175028
0.8339500774
0.8473774425
0.9310171884
0.8516828030
0.8464778574
0.9290018405
0.9319377271
0.8455301778
0.8550465939
0.9291334155
0.9355045342
0.9255286546
0.9344510102
0.8496779641
0.8436402447
0.9325424120
0.9356093107
0.8412998131
0.8340066912
0.8338205546
0.9345138703
0.8492963044
0.9197818079
0.9331833099
0.8513607464
0.8493265536
0.9286903148
0.9287173008
0.8506342490
0.8438586622
0.9351446381
0.8429448342
0.8534776234
0.9307842466
0.8490735511
0.8453070394
0.8329073539
0.8432710719
0.8462660683
0.8471407452
0.8442647342
0.9271967576
0.9335432304
0.8540146136
0.9290206150
0.8319633980
0.9332583687
0.8469573030
0.8580241392
0.8516690849
0.8436018347
0.8514882189
0.8473695145
0.8456729037
0.9340362456
0.8423879203
0.9381539928
0.8363580568
0.9331973874
0.9356191854
0.8429402541
0.8441773005
0.8436179065
0.9162642295
0.8429223884
0.9263299247
0.9363080180
0.8412932530
0.9287087585
0.8340286305
0.9376576992
0.9359007248
0.8450469285
0.8506146871
0.9125764009
0.8523016989
0.9222016792
0.8436320645
0.9372562653
0.9376967073
0.8450519536
0.8452337682
0.9335472682
0.8345176417
0.8452987175
0.9312177828
0.9272128384
0.8329356073
0.9381866476
0.8462596804
0.8437829613
0.9337901037
0.8514742540
0.8979187356
0.8391407137
0.8439489399
0.9082084247
0.9372617602
0.8429142894
0.8409911357
0.9376646742
0.8436099838
0.8522898682
0.8422708951
0.9386146607
0.8441686733
0.8363940494
0.9367369630
0.8435132850
0.8496250204
0.9361672838
0.8432188023
0.8856405374
0.8408584894
0.9380079829
0.8382098928
0.8428322252
0.9381080874
0.9401771975
0.9033996677
0.8424163007
0.8345591461
0.9369169407
0.9404745478
0.9312345092
0.8721577295
0.8424719439
0.8436509501
0.9360844817
0.9386199539
0.9367434418
0.9393604948
0.8408506167
0.8422574577
0.9373726457
0.8403949717
0.8919743838
0.8496124080
0.8437375201
0.8391927100
0.9398897683
0.9401241901
0.8394353468
0.9369892951
0.8579999098
0.8789602610
0.8409383636
0.8428248956
0.9404271082
0.8424648236
0.8415973504
0.8414333719
0.8439245345
0.9399252335
0.8431071081
0.8440087310
0.9375575058
0.9221016406
0.9348905358
0.9304005946
0.8651544895
0.9401365270
0.8511012731
0.9389831159
0.9073151969
0.9345297735
0.9360912992
0.8720466813
0.9393750220
0.9397173651
0.8403703291
0.9353877675
0.9394119956
0.9269503354
0.9334488714
0.8579518455
0.9155411386
0.9359151406
0.8852936736
0.9399017860
0.9396757382
0.9373803796
0.8396997684
0.8441002707
0.8505641295
0.8415914040
0.8337373890
0.8971821596
0.8414269317
0.8278495665
0.8316633934
0.8374736150
0.8373921653
0.8388356010
0.8258942140
0.8375035567
0.8361192744
0.8405283996
0.8307881896
0.8276044676
0.8382180146
0.8378900894
0.8372550018
0.8259553393
0.8789637972
0.9181571590
0.9331217287
0.9388789589
0.9017521119
0.8656433952
0.9345336167
0.8511352133
0.9348960302
0.9385982531
0.8446675173
0.9283145849
0.9363955988
0.9389917850
0.9117912479
0.9319337662
0.9244200679
0.9381513216
0.8916740237
0.9239238684
0.9344346221
0.9397295216
0.9107954468
0.8788324399
0.9365410291
0.8649833293
0.8521141976
0.9317049664
0.9389170919
0.9189011518
0.9334503365
0.9285973364
0.9394287732
0.8331548661
0.8910447515
0.8389793718
0.8259858070
0.8195617693
0.8216780612
0.8290584651
0.8378637569
0.8387779527
0.8348932955
0.8371709749
0.8394929412
0.8360421803
0.8282247967
0.8332966979
0.9027265395
0.8396944312
0.8374454473
0.8283945583
0.8304217362
0.8323987615
0.8214696698
0.8197075782
0.8248034648
0.8322520095
0.8384179263
0.8388130219
0.8355634763
0.8441224131
0.8389974067
0.8345259545
0.8312236749
0.8346717755
0.8356567355
0.8279846351
0.9138232052
0.9311876517
0.9373757497
0.9386078477
0.9347494902
0.9213046387
0.8723398075
0.8398091240
0.9254242458
0.8446843383
0.9300835575
0.8962231526
0.8602512396
0.9068173420
0.9331227848
0.9203033033
0.9325126643
0.9389408721
0.9380282596
0.9262897095
0.8853142010
0.8471970490
0.9294141561
0.8583194246
0.9317029216
0.9057958297
0.8730289702
0.9148803747
0.9354786199
0.8215113430
0.8223875190
0.8139954800
0.8371402018
0.8316584190
0.8287195097
0.8276928637
0.8852293710
0.8333647318
0.8346474339
0.8323597752
0.8317594996
0.8343517555
0.8969250443
0.8156566734
0.8227377876
0.8223965388
0.8363073837
0.8166001979
0.8215976377
0.8137464086
0.8366386730
0.8389849243
0.8307462454
0.8246371769
0.8308042244
0.8350356283
0.8310732936
0.8325305395
0.8280501924
0.8187374207
0.8259374442
0.8259283615
0.8360191995
0.8175151487
0.8032016511
0.8361000578
0.8052721323
0.9175983786
0.9311871735
0.8193189256
0.8129933217
0.8910516302
0.8042956427
0.8553684561
0.9016169031
0.8004121930
0.8122320624
0.8172191161
0.9360771508
0.8661641925
0.8398118755
0.9219943342
0.9092859957
0.9277431307
0.8131902574
0.8176100436
0.8008575354
0.9326515283
0.7984349462
0.8064586040
0.9287668656
0.8185067337
0.8062178175
0.8430318379
0.8050361300
0.9233106887
0.9339128535
0.8204877773
0.8122604242
0.9009086928
0.8003539521
0.8676308729
0.9104208103
0.8005133948
0.8119673881
0.8185285262
0.9379853960
0.8790363010
0.8528649636
0.9265183178
0.9163015260
0.9294115032
0.8188826076
0.8118687947
0.8017988395
0.9365115987
0.7988735966
0.8098680326
0.9300615084
0.8813671426
0.8281017622
0.8313121063
0.8219344407
0.8461221570
0.8283675455
0.8099962116
0.8331424353
0.9196745952
0.9188922370
0.9047733818
0.8235680126
0.9042560352
0.8669831347
0.8181758932
0.8307281453
0.8271776255
0.8611886740
0.8285822290
0.8393629115
0.8343929329
0.8799588729
0.8164474513
0.8912156342
0.8170025916
0.8163939117
0.8848006594
0.8095424810
0.8879723869
0.8289973662
0.8250300731
0.8186997029
0.8382031970
0.8270870588
0.8127995976
0.8323395606
0.9222908168
0.9215296005
0.9073031406
0.8257442334
0.9018419237
0.8599197179
0.8126669709
0.8309800912
0.8343475135
0.8700907461
0.8254304476
0.8493446463
0.8338304967
0.8202494371
0.8210025316
0.8157566399
0.8795015663
0.8087083449
0.8116314355
0.7973557223
0.8139467655
0.8237157449
0.8107973466
0.8042913601
0.7996861640
0.7944347757
0.9135341670
0.8207136544
0.7932750243
0.8210918366
0.8207163256
0.8159205323
0.8963783376
0.8083312875
0.8088703294
0.8176068136
0.8028388929
0.8274675508
0.8020614107
0.9248472964
0.8154976001
0.8172201600
0.8074735309
0.8018116224
0.8083175334
0.7966108127
0.8265524784
0.9343563092
0.8207242328
0.8064627002
0.8611114354
0.8209848432
0.8195648943
0.8067489075
0.8070299383
0.8028333026
0.7951031123
0.8095629954
0.8004139621
0.8129905706
0.8025288904
0.9287668480
0.8360973073
0.7984314074
0.8027500749
0.8144506201
0.8073943399
0.7998966361
0.8177081177
0.8035191949
0.8253418422
0.8166099786
0.8101698462
0.8029158513
0.7931218998
0.9198367171
0.8193218015
0.7937413380
0.8206172502
0.8100694575
0.9057588439
0.8087427881
0.8064123668
0.8263237152
0.8263256542
0.7973692684
0.9265174528
0.8152521652
0.8155984563
0.8103316164
0.8015017492
0.7966459267
0.8274398108
0.9365219544
0.8137709674
0.7984583210
0.8031507489
0.8735779747
0.8274643337
0.8085574312
0.8075520346
0.8010463237
0.7960732040
0.8107131497
0.7988720278
0.8098695261
0.8022666212
0.9318605398
0.8483812769
0.8003492556
0.8024189621
0.9092897990
0.8311901218
0.7914352947
0.7981282158
0.8257329246
0.8855428201
0.9163338712
0.8160846216
0.9018499811
0.7979399323
0.8060305366
0.8126470938
0.8468506925
0.7975989324
0.9258363951
0.9188993180
0.9214897637
0.8297030461
0.8922936101
0.8915558169
0.7948063585
0.8233086531
0.9118924262
0.7907633932
0.7942867093
0.8813705619
0.9071441657
0.8502985697
0.8502979916
0.8691230223
0.8234659501
0.8108851517
0.8022681437
0.8776518672
0.8568151777
0.9321257532
0.9226234700
0.8226323277
0.8010310401
0.9156872684
0.9089318239
0.8449502121
0.9159462541
0.7913481991
0.9160206728
0.8304668010
0.7931201173
0.7982418381
0.8264738776
0.9153375296
0.8128934952
0.9073119236
0.8013841364
0.8170871106
0.8568147153
0.7993876077
0.9293007904
0.9215360037
0.9231287434
0.8283554675
0.8954206241
0.9009544977
0.7965046425
0.8197540307
0.9156950357
0.7899743417
0.7940663048
0.8864872468
0.9047818488
0.8599197721
0.8901849979
0.8807078293
0.8313090840
0.8107424861
0.8014404233
0.8848049355
0.9345414431
0.9222967135
0.9105247867
0.8333178227
0.7961713506
0.9192957379
0.9118840985
0.8571435723
0.7916536900
0.8481493910
0.9258381665
0.8915609294
0.8159211897
0.9321279564
0.7932726479
0.8186485839
0.8333152388
0.8749854373
0.8090315521
0.9004190971
0.9268773721
0.8900059570
0.8101876757
0.8825091216
0.7985741006
0.9152419893
0.8571463693
0.8690492898
0.7985722415
0.8017955422
0.8020613220
0.8995429715
0.8154986263
0.8204965520
0.8180275705
0.8188775906
0.8101862448
0.8864311661
0.9005723408
0.7973539776
0.8119749182
0.8272011909
0.9124378957
0.8116376635
0.9225021233
0.7944334034
0.7976251506
0.8254981756
0.8347138891
0.8098074991
0.8312895696
0.9068988955
0.8220190895
0.8000076551
0.8118652878
0.7987090826
0.8046705377
0.8496770825
0.9088037052
0.7987081642
0.8045571904
0.9092927426
0.8556589588
0.7953367049
0.9141358797
0.9214912859
0.8067720554
0.8579656843
0.9293031124
0.9009583392
0.8249096920
0.9345411862
0.7931192511
0.8254977337
0.7952199906
0.8449504703
0.8682446797
0.8043842217
0.8978597894
0.9296286947
0.8853714361
0.8920956567
0.9137195370
0.8691281194
0.8773230933
0.8057796544
0.7965288348
0.8082153714
0.9024691808
0.8157474159
0.7953784570
0.8095618384
0.8922014147
0.9079636547
0.7951941075
0.8371889479
0.9109115784
0.9235230158
0.7973696053
0.8046722843
0.8249101181
0.8270392483
0.8383288699
0.9062041652
0.7998954959
0.8049877474
0.8610091458
0.9093098038
0.7990061144
0.8025274881
0.9160227322
0.8476333336
0.7952498995
0.9194441780
0.9231307886
0.8177161370
0.8807136596