<VTKFile type="UnstructuredGrid" version="0.1">
	<UnstructuredGrid>
		<Piece NumberOfPoints="1862" NumberOfCells="3498">
			<CellData>
				<DataArray type="Int32" Name="type" NumberOfComponents="1" Format="ascii">
0
0
0
0
0
0
0
0
0
0
0
0
0
0
0
0
1
0
0
1
0
0
0
0
0
0
0
0
0
0
0
0
0
1
0
0
0
0
0
0
0
0
0
0
0
0
0
0
0
0
1
0
0
0
0
0
0
0
0
0
0
1
0
0
0
0
0
0
0
0
0
0
0
0
0
0
0
0
0
0
0
0
0
0
0
0
0
0
0
0
0
0
0
0
0
0
0
0
0
0
0
0
0
0
0
0
0
0
0
0
0
0
0
0
0
0
0
0
0
0
0
0
0
1
0
0
0
0
0
0
0
0
0
0
0
0
0
0
0
0
0
0
0
0
0
0
0
0
0
0
0
1
0
1
1
0
0
0
0
0
0
0
0
0
0
0
0
0
1
0
1
0
0
0
0
1
0
0
0
0
0
0
0
0
1
1
0
0
0
0
0
1
0
0
0
0
0
0
0
0
1
0
0
0
0
0
0
0
0
0
0
0
0
0
0
0
0
0
0
0
0
0
0
0
0
0
0
0
0
0
0
0
0
1
0
0
0
0
0
0
0
0
0
0
0
0
0
0
0
0
0
0
0
0
0
0
0
0
0
0
0
0
0
0
0
0
0
0
0
0
0
0
0
0
0
0
0
0
0
0
0
1
0
0
0
0
0
0
0
0
0
0
0
0
0
0
0
0
0
0
0
0
0
0
0
0
0
0
0
0
0
0
0
0
0
0
0
0
0
0
0
0
0
0
0
0
0
0
0
0
0
0
1
0
0
0
0
0
0
0
0
0
0
0
0
0
0
0
0
0
0
0
0
0
0
0
0
0
0
0
0
0
0
0
0
0
0
0
0
0
0
0
0
0
0
0
0
0
0
0
0
0
0
0
0
0
0
0
0
0
1
0
0
0
0
0
0
0
0
0
0
0
0
0
0
0
0
0
0
0
0
0
0
0
0
0
0
0
0
0
0
0
0
0
0
0
0
0
0
0
0
0
0
0
0
0
0
0
0
0
0
0
0
0
0
0
0
0
0
0
0
0
0
0
0
0
0
0
0
0
0
0
0
0
0
0
0
0
0
0
0
0
0
0
0
0
0
0
0
0
0
0
0
0
0
0
0
0
0
0
0
0
0
0
0
0
0
0
0
0
0
0
0
0
0
0
0
0
0
0
0
0
0
0
0
0
0
0
0
0
0
0
0
1
0
0
0
0
0
0
0
0
0
0
0
0
0
0
0
0
0
0
0
1
0
0
0
0
0
0
0
0
0
0
0
0
0
0
0
0
0
0
0
0
0
0
0
0
0
0
0
0
0
0
0
0
0
0
0
0
0
0
0
0
0
0
0
0
0
0
0
0
0
0
0
0
0
1
0
0
0
0
0
0
0
0
0
0
0
0
0
0
0
0
0
0
0
0
0
0
0
1
0
0
0
0
0
0
0
0
0
0
0
0
0
0
0
0
0
0
0
1
0
0
0
1
0
0
0
0
0
0
0
0
0
0
0
0
0
0
0
0
0
0
0
0
0
0
0
0
0
1
0
0
0
0
0
0
0
1
0
0
0
0
0
0
0
0
0
0
0
0
0
0
0
0
0
0
0
0
0
0
0
0
0
0
1
0
0
0
0
0
0
0
1
0
0
0
0
0
0
1
0
0
0
0
0
0
0
0
0
0
0
0
0
0
0
0
0
0
0
0
0
0
0
0
0
0
0
0
0
0
0
0
0
0
0
0
0
0
1
0
0
0
0
0
1
0
0
0
0
0
0
0
1
0
0
0
0
0
0
0
0
0
0
0
0
0
1
0
0
0
0
0
0
0
0
0
0
0
0
0
0
0
0
0
0
0
0
0
0
0
0
0
0
0
0
0
0
0
0
0
0
0
0
0
0
0
0
0
0
0
0
0
0
0
0
0
0
0
0
0
1
0
0
0
0
0
0
0
0
0
0
0
0
0
0
0
0
0
0
0
1
0
0
0
0
0
0
0
0
0
1
0
0
0
0
0
0
0
0
0
0
0
0
0
0
0
0
0
0
0
0
0
0
0
0
0
0
0
0
0
1
0
1
0
0
0
0
0
0
0
0
0
0
0
0
0
0
0
0
0
0
0
0
0
0
0
0
0
0
0
1
0
0
0
1
0
0
0
0
0
0
0
0
0
0
0
0
0
0
0
0
0
0
0
0
0
0
0
0
0
0
0
0
1
0
0
0
0
0
0
0
0
0
0
0
0
0
0
0
0
0
0
0
0
0
0
0
0
0
1
0
0
0
0
0
0
0
0
0
0
0
0
0
0
0
0
0
0
0
0
0
0
0
1
0
0
0
0
0
0
1
0
0
0
0
0
0
0
0
0
0
0
1
0
0
0
0
0
0
0
0
0
0
0
0
0
0
0
0
0
0
0
0
1
0
0
0
0
0
0
0
0
0
0
0
1
0
0
0
0
0
0
0
0
0
0
0
0
0
0
0
0
0
0
0
0
0
1
0
0
0
0
0
0
0
0
0
1
1
0
1
0
1
0
0
0
0
0
0
0
0
0
0
0
1
0
0
0
0
0
1
1
0
0
0
0
0
0
1
0
0
0
0
0
1
1
1
0
0
0
0
0
0
0
0
0
0
0
0
1
1
0
0
1
0
0
0
0
0
1
0
0
0
1
0
1
0
0
0
0
0
0
0
1
0
0
0
0
0
0
0
1
0
0
1
0
0
0
0
0
0
0
0
0
0
0
0
0
0
0
1
0
0
0
0
0
0
0
0
0
0
0
0
0
0
0
0
0
0
0
0
0
0
0
0
0
0
0
0
0
0
0
0
0
0
0
0
1
0
0
0
0
0
0
1
0
0
0
1
0
0
0
0
0
0
0
0
0
0
0
1
0
0
0
0
0
0
0
0
0
0
0
0
0
0
0
0
0
0
0
0
0
0
0
0
0
0
0
0
0
0
0
0
0
0
0
0
0
0
0
0
1
1
0
0
0
0
0
0
0
0
0
0
0
0
0
1
0
0
0
0
0
0
0
0
0
0
0
0
0
0
0
0
0
0
0
0
0
0
0
0
0
0
0
0
0
0
0
0
0
0
0
0
0
0
0
0
0
0
0
0
0
0
0
0
0
0
0
0
0
0
0
0
0
0
0
0
0
0
0
0
0
0
0
0
0
0
0
0
1
1
0
0
0
0
0
0
0
0
1
0
0
0
0
0
0
0
0
0
0
0
0
0
0
0
0
0
0
0
0
0
0
0
1
0
0
0
0
0
0
0
0
0
0
0
0
0
0
0
0
1
0
0
0
0
0
0
0
0
0
0
0
0
0
0
0
0
0
0
0
0
0
0
0
0
0
0
0
0
0
0
0
0
0
0
0
0
0
0
0
0
0
0
0
0
0
0
0
0
0
0
0
0
0
0
0
0
0
0
0
0
0
0
0
0
0
0
0
0
0
0
0
0
0
0
0
0
0
0
0
0
0
0
0
0
0
0
0
0
0
0
1
1
0
0
0
0
0
1
0
0
0
0
0
0
0
0
0
0
0
0
1
0
0
0
0
0
0
0
0
0
0
0
0
0
0
0
0
0
0
0
0
0
0
0
0
0
0
0
0
0
0
0
0
0
0
0
0
0
0
0
0
0
0
0
0
0
0
0
0
0
0
0
0
0
1
0
1
0
0
0
0
0
0
0
0
0
0
0
0
0
0
0
0
0
0
1
0
0
0
0
0
0
0
0
0
0
0
0
0
0
0
0
0
0
0
0
0
0
0
0
0
0
0
0
0
0
0
0
0
0
0
0
0
0
0
0
0
0
0
0
0
0
0
0
0
0
0
0
0
0
0
0
0
0
0
0
0
0
0
0
0
0
0
0
0
0
1
0
0
0
0
0
0
0
0
0
0
1
0
0
0
0
0
0
0
0
0
0
0
0
0
0
0
0
0
0
0
0
0
0
0
0
0
0
0
0
0
0
0
0
0
0
0
0
0
1
0
0
0
0
0
0
0
0
0
0
0
0
0
0
0
0
0
0
0
0
0
0
0
0
0
0
0
0
0
0
0
0
0
0
0
0
0
0
0
0
0
0
0
0
0
0
0
0
0
0
0
0
0
0
0
0
0
0
0
0
0
0
0
0
0
0
0
0
0
0
0
0
0
0
0
0
0
0
0
0
0
1
0
0
0
0
0
0
0
0
0
0
0
0
0
0
0
0
0
0
0
0
0
0
0
0
0
0
0
0
0
0
0
0
0
0
0
0
0
0
0
0
0
0
0
0
0
0
0
0
0
0
0
0
0
0
0
0
0
0
0
0
0
0
0
0
0
0
0
0
0
0
0
0
0
0
0
0
0
0
0
0
0
0
0
0
0
0
0
0
0
0
0
0
0
0
0
0
0
0
0
0
0
0
0
0
0
0
0
0
0
0
0
0
0
0
0
0
0
0
0
0
0
0
0
1
0
0
0
0
0
0
0
0
0
0
0
0
0
0
0
0
0
0
0
0
0
0
0
0
0
0
0
0
0
0
0
0
0
0
0
0
0
0
0
0
0
0
0
0
0
0
0
0
0
0
0
0
0
0
0
0
0
0
0
0
0
0
0
0
0
0
0
0
0
0
0
0
0
0
0
0
0
0
0
0
0
1
0
0
0
0
0
0
0
1
0
0
0
0
0
0
0
0
0
0
0
0
0
0
0
0
0
0
0
0
0
0
0
0
0
0
0
0
0
0
0
0
0
0
0
0
0
1
0
0
0
0
0
0
0
0
0
0
0
0
0
0
0
0
0
0
0
0
0
1
0
0
0
0
0
0
0
0
0
0
0
0
1
1
0
0
0
0
0
0
0
0
0
0
0
0
0
0
0
1
1
0
1
0
0
0
0
0
0
0
0
0
1
0
0
0
0
0
0
1
0
0
0
0
0
0
0
0
0
0
1
0
0
0
0
1
0
1
0
0
0
0
0
0
0
1
0
0
0
1
0
0
0
1
0
1
1
0
0
1
1
0
0
0
1
0
0
0
1
0
0
0
0
0
0
0
0
0
1
0
0
0
0
0
0
1
0
0
0
0
0
0
0
0
0
0
0
0
0
0
0
0
0
0
0
0
0
0
0
0
0
0
0
1
0
0
1
0
0
0
0
0
0
0
0
0
0
0
0
0
0
0
0
0
0
1
0
0
1
0
0
0
0
0
0
0
0
0
0
0
1
0
0
1
0
0
0
0
0
0
0
0
0
0
0
1
1
0
0
0
0
0
0
0
0
0
0
0
0
1
0
0
0
0
0
0
0
0
0
0
0
0
0
0
0
0
0
1
0
0
0
0
0
0
0
0
0
0
0
0
0
0
0
0
0
1
0
0
0
0
0
0
0
0
0
0
0
0
0
0
0
0
0
0
0
0
0
0
0
0
0
0
0
0
0
0
0
0
0
0
0
0
0
0
0
0
1
0
0
0
0
0
0
0
0
0
0
0
0
0
0
0
0
0
0
0
0
0
0
0
0
0
0
0
0
0
0
0
0
0
0
0
0
0
0
0
0
0
0
0
0
0
1
0
0
0
0
0
0
0
0
0
0
0
0
0
0
0
0
0
0
0
0
0
0
0
0
0
0
0
0
0
0
0
0
0
0
0
0
0
0
0
0
0
0
0
0
0
0
0
1
0
0
0
0
0
0
0
0
0
0
1
0
0
0
0
0
0
0
0
0
0
0
0
0
0
0
1
0
0
1
0
0
0
0
0
0
0
0
0
0
0
0
0
0
0
0
0
0
0
0
0
0
0
1
0
0
0
0
0
0
0
0
0
0
0
0
0
0
0
0
0
0
0
0
0
0
0
0
0
0
0
0
0
0
0
0
0
0
0
1
0
0
0
0
0
0
0
0
0
0
0
0
0
0
0
0
0
0
0
0
0
0
0
0
0
0
0
0
0
0
0
0
0
0
0
0
0
0
0
0
0
0
0
0
0
0
0
0
0
0
0
0
0
0
0
0
0
0
0
0
0
0
0
0
0
0
0
0
0
0
0
0
0
0
0
0
1
0
0
0
0
0
0
0
0
0
0
0
0
0
0
0
0
0
0
0
0
0
0
0
0
0
0
0
0
0
0
0
0
0
0
0
0
0
0
0
1
0
0
0
0
0
0
0
0
0
0
0
0
1
1
0
0
0
0
0
0
0
0
0
0
0
0
0
0
0
0
0
0
0
0
0
0
0
0
0
0
0
0
0
0
0
0
0
0
0
0
0
0
0
0
0
0
0
0
0
0
0
0
0
0
0
0
0
0
0
0
0
0
0
0
0
0
0
0
0
0
0
0
0
0
0
0
0
0
0
0
0
0
0
0
0
0
0
0
0
0
0
0
0
0
0
0
0
0
0
0
0
0
0
0
0
1
0
1
0
0
0
0
0
0
0
1
1
1
1
0
0
0
0
0
0
0
0
0
0
0
0
0
0
0
0
0
0
0
0
0
0
0
0
0
0
0
0
1
1
0
0
0
0
0
0
0
0
0
0
0
0
0
0
0
0
0
0
1
0
0
0
0
0
0
0
1
1
0
1
1
0
0
1
0
0
0
0
0
0
0
1
0
1
0
0
0
0
0
0
0
0
0
0
0
0
0
0
0
0
0
0
0
0
0
0
0
0
0
0
0
1
1
0
0
0
1
1
0
0
0
0
1
0
0
1
0
1
0
0
0
0
0
1
0
0
0
1
0
0
0
0
0
0
0
0
0
0
0
0
0
0
0
0
0
0
0
0
0
0
0
0
0
0
0
1
0
0
0
0
0
0
1
0
0
0
0
0
0
0
0
0
0
0
0
0
0
0
0
0
0
0
0
0
0
0
0
0
0
0
0
0
1
0
1
0
0
0
0
0
0
0
1
0
0
0
0
0
0
0
0
0
0
0
1
0
0
0
0
0
0
0
0
0
1
0
0
0
0
0
0
0
1
0
0
0
0
0
0
0
1
0
0
0
0
0
0
0
0
0
0
0
0
0
0
0
0
0
0
0
1
0
1
0
0
0
0
0
1
0
0
0
0
0
0
0
0
0
0
0
0
0
0
0
0
0
0
0
0
0
0
0
0
0
1
0
1
0
0
0
0
0
0
0
0
0
1
0
0
0
0
0
1
0
0
0
0
0
0
0
0
0
0
0
0
0
0
0
1
0
0
0
0
0
0
0
0
1
0
0
0
0
0
0
0
0
0
0
0
0
0
0
0
0
0
0
0
0
0
0
0
0
0
0
0
0
0
0
1
0
0
0
0
0
0
0
0
0
0
0
0
0
0
0
0
1
0
0
0
0
0
0
0
0
1
0
0
0
0
0
0
0
0
0
1
0
0
0
0
0
1
0
0
0
0
0
0
0
0
0
0
0
0
0
0
0
0
0
0
0
1
0
0
0
0
0
0
1
0
0
0
0
0
0
0
0
1
0
0
0
0
0
0
0
0
0
0
0
0
0
0
1
0
0
1
0
0
0
1
0
0
0
0
0
0
0
0
0
0
0
0
0
0
0
0
1
0
0
0
0
0
0
0
0
0
0
1
0
1
0
0
0
0
0
0
1
0
0
0
0
0
0
0
0
0
0
0
0
0
0
0
0
0
0
0
0
0
0
0
0
0
0
0
1
1
0
0
0
0
0
0
1
0
0
0
0
0
0
0
0
0
0
0
0
0
1
0
0
0
0
0
0
0
1
0
0
0
0
0
0
0
0
0
0
0
0
0
0
0
0
0
0
0
0
0
0
0
0
0
0
0
1
0
0
0
0
0
0
0
0
0
0
1
0
0
1
0
0
0
0
0
0
0
0
0
0
0
0
0
0
0
0
0
0
0
0
0
0
0
0
0
0
0
0
0
1
0
0
0
0
0
0
0
1
0
0
0
0
0
0
0
1
0
0
0
0
1
0
0
0
0
0
0
0
0
0
0
0
1
0
1
0
0
0
1
0
				</DataArray>
				<DataArray type="Float64" Name="h" NumberOfComponents="1" Format="ascii">
0.8308658926
0.8308164702
0.8351240143
0.8234067856
0.8394612520
0.8364469353
0.8316022675
0.8191617836
0.8300003096
0.8082449586
0.8185204749
0.8320667286
0.8255405941
0.8134876533
0.8231961473
0.8177591358
0.8250905353
0.8127586361
0.8306871456
0.8144368899
0.8384403038
0.8315385319
0.8396375513
0.8439450305
0.8204124776
0.8163154370
0.8401858739
0.8572333106
0.8437926776
0.8084776842
0.8093675542
0.8400870395
0.8302111231
0.8353681699
0.8559626662
0.8475837469
0.8452478741
0.8441603913
0.8563442654
0.8423770911
0.8438763510
0.8575979726
0.8415418835
0.8479576941
0.8471901547
0.8548618280
0.8450231422
0.8585370152
0.8855864892
0.8810528482
0.8447340514
0.8514165911
0.8482732081
0.8669593117
0.8547498019
0.8456158452
0.8546842887
0.8638491902
0.8685496054
0.8659414203
0.8727114492
0.8703650509
0.8849414756
0.8514097196
0.8520820992
0.8603200483
0.8756303358
0.8805253985
0.8691420664
0.8660500615
0.8666451724
0.8554325127
0.8475966245
0.8707359592
0.8697776125
0.8556291624
0.8658011411
0.8719017759
0.8619278713
0.8566154961
0.8767088983
0.8624611113
0.8951888370
0.8750839300
0.8550670086
0.8575905749
0.8781464821
0.8688501702
0.8743206934
0.8940520228
0.8817138085
0.8569531035
0.8747850358
0.8906218559
0.8610125477
0.8592488869
0.8636058525
0.8556821873
0.8580763148
0.8796373138
0.8931224862
0.8761004544
0.8656071137
0.8600007739
0.7979290508
0.8705921215
0.8584783163
0.8896067253
0.8738624721
0.8626337591
0.8862360490
0.8906582824
0.8778805419
0.8833359565
0.8705657816
0.8868694708
0.8668694862
0.8016471284
0.8862529697
0.8755277962
0.7974578503
0.8652042373
0.8557536057
0.7827893218
0.8793280883
0.8888623822
0.8712760340
0.7828798603
0.8846194957
0.8877166212
0.8845717500
0.8606604547
0.8755876325
0.8853224675
0.7970657424
0.8859611012
0.8083834889
0.8861373852
0.8803517271
0.8254349028
0.7843615633
0.7873618807
0.8843467696
0.8356828766
0.8574095708
0.8830886861
0.8158450908
0.8888730973
0.7874710371
0.8870917925
0.8035145822
0.8857123659
0.8858217777
0.8844844707
0.8794023796
0.8877577542
0.8862433232
0.7921748746
0.8864334820
0.7750073910
0.8324297656
0.8886228470
0.8128338945
0.7812533111
0.7878073852
0.8895607131
0.8440430661
0.8225557486
0.7759140845
0.8864683339
0.8862565689
0.7721226622
0.8848041659
0.7915836238
0.8482044082
0.8834532617
0.8414190959
0.8920957290
0.8845144499
0.7820505910
0.8891444888
0.8522970688
0.7756194427
0.8555735027
0.7710360006
0.7683736062
0.8498825620
0.8847553702
0.7740000920
0.7670659662
0.8541069308
0.8848773797
0.7710863440
0.8531774198
0.8836614932
0.8923782888
0.7883343751
0.8545168307
0.8544032942
0.8862894893
0.7665037892
0.8563154336
0.7678483665
0.8855854805
0.8543066074
0.7813923264
0.8217840088
0.8038357387
0.8544274618
0.8398905803
0.8532702505
0.7702964752
0.7856930866
0.7803741232
0.8132031060
0.8537936693
0.8311589097
0.7872537162
0.8510652893
0.7756235367
0.8543740881
0.8915105613
0.8466569243
0.8789379199
0.8563598415
0.8915319295
0.8969135874
0.8655832663
0.8544523564
0.8953591328
0.8879515036
0.8857749916
0.8600893249
0.8884136766
0.8943160672
0.8718281159
0.8537810844
0.8268811268
0.7745777255
0.8433251907
0.8533910054
0.8099061588
0.7880196451
0.8443912330
0.8093245122
0.8280207372
0.7856409707
0.8526847507
0.8188120194
0.7940492189
0.8353818417
0.8519360317
0.7922868150
0.8538485157
0.8539350359
0.7870657839
0.8368508194
0.8186617910
0.7803580619
0.8841356693
0.8485852331
0.8562340662
0.8636848347
0.8772388097
0.8580659950
0.8961846891
0.8956918659
0.8541992374
0.8893770796
0.8916665038
0.8997071662
0.8495187772
0.8955791912
0.8692194541
0.8767132785
0.8552106077
0.8589314238
0.8699222756
0.8848298096
0.8552217790
0.8980526809
0.8920348339
0.8931225165
0.8985685675
0.8968440388
0.8907242209
0.8629242714
0.8316383175
0.7925031864
0.7950144437
0.8323091205
0.8534102759
0.8157481787
0.8151452257
0.8450148200
0.8536668059
0.8460361292
0.8238018161
0.8008592302
0.7870502132
0.7942020864
0.8238058854
0.8523753329
0.8550201041
0.8541192096
0.8390717074
0.8520151805
0.8400371056
0.7990585467
0.8583321130
0.8673962541
0.8638096537
0.8926275445
0.8560470215
0.9019510705
0.8826485936
0.8493264565
0.8963321123
0.9000816445
0.8501245748
0.8764343655
0.8578844849
0.8916525930
0.9001693309
0.8600859837
0.8616825850
0.8693842748
0.8972295464
0.8747814520
0.8901820358
0.9002169888
0.9026041478
0.8960413204
0.8582423909
0.8841756446
0.8561289620
0.8978625615
0.8355204760
0.9137588574
0.8459986939
0.8550246477
0.8467887050
0.7994836542
0.8540333113
0.8208361641
0.8348766756
0.8204049388
0.8019369793
0.9137218576
0.8802372954
0.8574801206
0.8921288048
0.8281664921
0.8057035247
0.9196673375
0.8410090826
0.8902787977
0.8525322127
0.8419161460
0.9040218977
0.9038581912
0.9166235039
0.7941873545
0.8523711217
0.8558993657
0.8286940637
0.8789526177
0.8853550581
0.8834748405
0.8013272295
0.8954861609
0.9147316906
0.8073813761
0.9044929278
0.8819428282
0.8774036514
0.9038942697
0.8241575391
0.9039937108
0.8627177400
0.8600230586
0.8968025531
0.8972246631
0.8498145919
0.8922631189
0.8502161391
0.8601598278
0.8677477245
0.8664790299
0.8482086017
0.9005713422
0.8631999177
0.8742783234
0.8799220727
0.9065336907
0.8847351165
0.8281026450
0.8361718435
0.8397368379
0.8651935153
0.8637757778
0.9018805157
0.8585848956
0.8898068487
0.8722662431
0.9013000628
0.8990015062
0.8592995466
0.8628693556
0.8530694295
0.8711368058
0.8796373173
0.8929852924
0.8885295462
0.8376850941
0.9155276376
0.9058956201
0.8472057234
0.8976505685
0.8721924590
0.8854180573
0.8778151154
0.8248650724
0.9095522564
0.9199841028
0.8805499946
0.9097462623
0.8061967416
0.9096232958
0.8558687229
0.8809817877
0.9250754284
0.8996765628
0.9187126686
0.8921768644
0.8871815463
0.9296462341
0.8998988514
0.9112368011
0.8907110404
0.8960238475
0.9133544131
0.8316390100
0.9198819901
0.8986938231
0.8429690103
0.8732219206
0.9056375056
0.8861669984
0.9174450935
0.9083171011
0.9060489728
0.8013135011
0.8720522898
0.8531387416
0.8778180848
0.9305241065
0.9248952377
0.9014342262
0.9322095051
0.8118834864
0.8591983321
0.8391599803
0.9015643531
0.8505017987
0.8829358335
0.8760383790
0.8649986700
0.8716048879
0.8285867402
0.9075114231
0.8477109080
0.8977456770
0.8549940009
0.8656108654
0.8704662866
0.9411170172
0.8532200655
0.8123540369
0.8266504608
0.8296314974
0.8640974937
0.8341487561
0.9054621228
0.9458825312
0.9406373891
0.9035571961
0.8326929244
0.8760282673
0.8384793022
0.9064088638
0.8650320991
0.9470182734
0.8172965717
0.8281023802
0.8435964100
0.8436912878
0.9499641699
0.8905105392
0.8327046273
0.9320279752
0.9341569170
0.8485329711
0.8397384946
0.8651947229
0.8513625902
0.8669539302
0.8080592818
0.8701380046
0.9144222120
0.8326929292
0.8592019059
0.9206484725
0.8477136816
0.8944614594
0.8123447208
0.9170536570
0.8935878483
0.8143597254
0.8479729405
0.8592132100
0.8985293576
0.9021301859
0.9162230998
0.8393628188
0.9257541310
0.8353614576
0.9093366428
0.8868821703
0.8605089526
0.9127868247
0.8391586169
0.9043146070
0.8294886032
0.8285825216
0.8710014266
0.8172897654
0.8436920022
0.8080468716
0.8868818414
0.8641099536
0.8642141963
0.8441194147
0.8108296094
0.8530266692
0.8438257000
0.8318599356
0.8550021504
0.8583468879
0.8408090116
0.9318477715
0.8486543651
0.8345895844
0.8860584354
0.8186142778
0.8931721069
0.8657578801
0.8380548077
0.9213316679
0.9267753397
0.8561638996
0.8356964713
0.9249026312
0.8341457567
0.8784758403
0.8999339488
0.8513674133
0.8760494405
0.9202860421
0.9060892650
0.8519567385
0.9110531951
0.9297671266
0.9157778037
0.8722100096
0.8195783858
0.8722353761
0.9016504705
0.9206507670
0.8586964789
0.8450320327
0.8861927324
0.9320299573
0.8388633781
0.9086064011
0.8323921163
0.9112616671
0.8930216469
0.8732376533
0.8443019067
0.9097847400
0.8698043661
0.8444528310
0.8798149633
0.8466167621
0.8720661529
0.8642927542
0.8165565032
0.9470501949
0.8585494413
0.8790421081
0.8537141105
0.9414901184
0.8408896610
0.8805640880
0.8491514010
0.8614351525
0.9439998009
0.9059218403
0.8413567591
0.8569832366
0.8280705133
0.9405095849
0.8423973276
0.9016510566
0.8366838117
0.9226014963
0.8294843039
0.8519611443
0.8605167506
0.8393628438
0.9294791193
0.8994926164
0.8232826431
0.8143508784
0.8492739459
0.8433528045
0.9576048223
0.8186069452
0.8491081145
0.8614398336
0.8448943965
0.8519322333
0.8657664778
0.8479758267
0.8561701351
0.8345875759
0.9469119657
0.9607759593
0.9365289026
0.9155644674
0.8108183682
0.8578354529
0.8669762443
0.8613535401
0.9451901481
0.9360774746
0.8860577295
0.8532667874
0.9463421400
0.8451620206
0.8459984935
0.8225275065
0.8338518499
0.8442138187
0.8557277223
0.8679939325
0.8438272758
0.9401234712
0.8418509124
0.8194671779
0.8298800140
0.9296255327
0.9529089503
0.9622012171
0.9328595648
0.8426915423
0.8507448547
0.8261551302
0.8378494018
0.9570582680
0.9613239880
0.8709995185
0.8548646446
0.8658993034
0.8469047933
0.9492310999
0.8472812006
0.8491581194
0.9746159315
0.9699941395
0.8554468646
0.8529073459
0.9556866343
0.8512320051
0.8510497990
0.8466597761
0.9644271313
0.9705947779
0.9693526132
0.8474748085
0.8445626164
0.8445178907
0.8442196840
0.8460775633
0.9623639363
0.9697106475
0.9430945016
0.9533681880
0.8439665205
0.9750391484
0.9784564731
0.8429237677
0.9607744297
0.9528769535
0.8413642328
0.9809564351
0.8486562205
0.9681869904
0.8398958374
0.8422741913
0.9807739843
0.8424091838
0.9758698311
0.9685080297
0.8357010038
0.9621904589
0.8368163077
0.8391268977
0.9577402316
0.9555418308
0.8298231294
0.8336898729
0.8342198287
0.8341779912
0.8336315881
0.8282488430
0.8320822965
0.8185492571
0.8241197294
0.8397000856
0.8364727102
0.8394351543
0.8396537184
0.8299603443
0.8232313421
0.8316243949
0.8124290424
0.8240869817
0.8282295492
0.8204525628
0.8127783082
0.8233875956
0.8351102560
0.8307423521
0.8085042935
0.8182518656
0.8302059805
0.8191294478
0.8163218356
0.8204284305
0.8082245914
0.8244740123
0.8255103937
0.8401759969
0.8266144362
0.8362058359
0.8123999234
0.8093801305
0.8204272479
0.8353902556
0.8302444229
0.8401517554
0.8371159444
0.8423883975
0.8564175638
0.8250719014
0.8177455771
0.8416050693
0.8563809341
0.8301826085
0.8182331041
0.8439187268
0.8134616722
0.8144357615
0.8401618963
0.8395625377
0.8601285682
0.8314964690
0.8482695846
0.8244450255
0.8384209585
0.8361427697
0.8354289991
0.8592586487
0.8585301504
0.8265958242
0.8472030597
0.8447449303
0.8450948533
0.8571971771
0.8439280936
0.8437287053
0.8547081179
0.8543626343
0.8401358090
0.8500883682
0.8106615165
0.8563803126
0.8578302110
0.8531444232
0.8370788248
0.8483245823
0.8601383738
0.8855169521
0.8805325424
0.8353693559
0.8482602629
0.8517282951
0.8592396603
0.8475610627
0.8521403300
0.8440893387
0.8585038851
0.8559657653
0.8849201590
0.8804898908
0.8596786544
0.8452388303
0.8514264994
0.8578318493
0.8636366364
0.8645632147
0.8478874722
0.8707075874
0.8660783410
0.8554319649
0.8476490636
0.8679139200
0.8526226411
0.8506910116
0.8500840554
0.8713701485
0.8531467445
0.8575949220
0.8657880659
0.8666321861
0.8704659846
0.8697554731
0.8543149708
0.8492068488
0.8691317953
0.8525368749
0.8106462834
0.8660406049
0.8517237070
0.8585148723
0.8589491501
0.8596746640
0.8760146497
0.8614557507
0.8802138285
0.8856082744
0.8513862490
0.8805656343
0.8548186582
0.8624580146
0.8750540220
0.8624192838
0.8855477510
0.8810855338
0.8727185342
0.8703724719
0.8491459909
0.8740409279
0.8704857665
0.8685665057
0.8648888356
0.8660989949
0.8554634031
0.8514466479
0.8636508657
0.8525359476
0.8610212939
0.8547480295
0.8708092502
0.8679222973
0.8713794323
0.8455684996
0.8633912863
0.8687111616
0.8525818305
0.8669762012
0.8645789011
0.8659598712
0.8569638567
0.8638603168
0.8506336323
0.8747765880
0.8760369291
0.8599916301
0.8581008060
0.8624327952
0.8541292776
0.8614684587
0.8760961033
0.8745301923
0.8775564156
0.8709918789
0.8603121403
0.8931213204
0.8756587741
0.8584663268
0.8557066690
0.8751124733
0.8592557496
0.8627310362
0.8802574031
0.8796357768
0.8705613859
0.8589391470
0.8934980963
0.8634024511
0.8738448866
0.8906351373
0.8740494835
0.8687288829
0.8778669642
0.8610352756
0.8556274914
0.8852942190
0.8649069274
0.8719148756
0.8514053137
0.8798326690
0.8554556878
0.8861925848
0.8626360035
0.8708207111
0.8775658602
0.8934870668
0.8664915693
0.8751167033
0.8575937879
0.8651989284
0.8748766331
0.8584729255
0.8059069130
0.8627478179
0.8710053686
0.8550495298
0.8566032375
0.8781480152
0.8951781764
0.8767107630
0.8668630762
0.8619367354
0.8745734771
0.7974617342
0.8688748880
0.8541076567
0.8798330110
0.8606534361
0.8804882249
0.8040226436
0.8888566404
0.8779897393
0.8816703301
0.8743357343
0.8610197025
0.8906542886
0.8886049433
0.8940585854
0.8817169292
0.8880942092
0.8646386082
0.8793040103
0.8712509330
0.8853540507
0.8877262783
0.8656158618
0.8902219317
0.8789483981
0.8665033360
0.8058981671
0.8748959568
0.8838633905
0.7970784801
0.8859647732
0.8755655362
0.7979273507
0.8636329092
0.8574030514
0.8743162825
0.7873760982
0.8798983348
0.8040273012
0.8885959867
0.8833458672
0.8896168645
0.8082467197
0.8646462253
0.8816784651
0.8705836869
0.7874797372
0.8805409075
0.8843573806
0.7795776440
0.8868530162
0.8780066904
0.8830968769
0.8880984992
0.8584964367
0.7911355574
0.8556215674
0.8721931321
0.8862130421
0.8902182493
0.8838795638
0.7979359840
0.8850442556
0.8916812446
0.8808546978
0.8755541888
0.8790255745
0.8857259328
0.8016351007
0.8819212023
0.8862527880
0.8020743115
0.8034941125
0.8858371165
0.8794043969
0.8082578918
0.7795658508
0.8225535978
0.7878093272
0.8799314889
0.8861992579
0.7911231569
0.7808258363
0.8888590227
0.8683465151
0.8743706224
0.7827754833
0.8846082371
0.8324415814
0.7905862635
0.8557659805
0.8845652862
0.7977618032
0.8128205108
0.8835380140
0.8886377000
0.7828688069
0.8864466979
0.8808488922
0.8084027005
0.8853088719
0.8863580138
0.8660155059
0.8916761628
0.8868914902
0.8861208249
0.8848180980
0.8032140550
0.7979925409
0.8803480422
0.8020528016
0.8722708361
0.7979510662
0.8861982177
0.8556283727
0.8819139873
0.8864825262
0.8834706441
0.8850305212
0.8862703044
0.7915780803
0.8870797406
0.7756331105
0.8633777348
0.7905831882
0.7808158193
0.8917543608
0.8862046873
0.8855338243
0.8356552095
0.8888604350
0.8158485474
0.7820584019
0.8888501234
0.7977438379
0.8683899220
0.7797106133
0.7843562581
0.8891594345
0.8835270993
0.8414438962
0.8828374602
0.8254249677
0.8861832553
0.7773493218
0.7740126615
0.8877390316
0.8862292156
0.7980042714
0.8601110643
0.8863424936
0.7920313154
0.8032009871
0.8660645222
0.7710518263
0.8868729791
0.8844683405
0.7921745076
0.8834612961
0.8499201343
0.8582426819
0.8836733081
0.8440055903
0.7773377012
0.8917426874
0.8923894697
0.7796990611
0.8855202230
0.8828297089
0.8904897068
0.7718804704
0.8861887693
0.8634123512
0.7774849380
0.8848882814
0.8848110167
0.7812439219
0.8895469948
0.8531970858
0.8902716309
0.7749941504
0.8562903173
0.8841139085
0.7721083187
0.7678643262
0.8481772375
0.8855947618
0.8601459795
0.7759011060
0.7665201088
0.7920133455
0.8544063755
0.8842801194
0.8845030390
0.7874814052
0.7718660042
0.7774730539
0.7703120080
0.8902623800
0.8904781550
0.7809066324
0.8943193043
0.8522760208
0.8847993827
0.8834412059
0.8582678679
0.7701008556
0.7685333030
0.8920894779
0.7857021781
0.8544198041
0.8541031394
0.8879583421
0.8841031470
0.7670499198
0.8842696692
0.8867328574
0.8856679604
0.8555914009
0.7683577059
0.8847447298
0.8543626709
0.7856539842
0.8280138909
0.7938992215
0.8093067201
0.8545204574
0.7685165551
0.8537609760
0.7741045098
0.8444013334
0.7948775849
0.7874798036
0.8537782525
0.7710699623
0.7721669737
0.8943102702
0.7883309953
0.7772280220
0.8186456422
0.8002828295
0.8538436412
0.8368576575
0.7922939920
0.8526916698
0.7700844734
0.7745940013
0.7808941250
0.8897242583
0.8539954148
0.8543153622
0.8867259902
0.8906622594
0.8495333618
0.8856589404
0.8766095770
0.8551981092
0.8931210537
0.8980462892
0.8963880688
0.8628688706
0.8541800624
0.8955522171
0.8862813088
0.8840417532
0.8580314400
0.8893831826
0.8980878718
0.8961834892
0.8691344798
0.8532662704
0.8323071024
0.8014289265
0.7756075034
0.8460433291
0.8534061062
0.7948774465
0.8537693048
0.7939047622
0.7793582059
0.8545485529
0.8151371365
0.7925148571
0.7740894428
0.8398722766
0.8038536385
0.8217943491
0.7813770331
0.8510437474
0.8237969864
0.7990653220
0.7721501190
0.8400406672
0.8523749618
0.7872428888
0.8537974020
0.8541068136
0.8067428205
0.7834262199
0.8311539060
0.8002891878
0.8132219341
0.7772112794
0.8858451358
0.8501340814
0.8553223336
0.8561050545
0.8616400199
0.8746799006
0.8601348705
0.8980884141
0.8943107872
0.8972159629
0.8544751492
0.8884081820
0.9001348632
0.8900963112
0.9001955711
0.8466360922
0.8897211267
0.8953803932
0.8719013933
0.8790185345
0.8560231057
0.8578568133
0.8673261696
0.8825395076
0.8563931761
0.8969166061
0.8963844476
0.8926260548
0.8540130305
0.8915269155
0.9001549285
0.8962843841
0.9013970216
0.8915576165
0.8656450950
0.8355261952
0.8078298309
0.7880058131
0.7793440097
0.7994941577
0.8268886914
0.8533942964
0.8568934606
0.8204053616
0.8545675922
0.8099174644
0.8467983470
0.8540242053
0.8433151870
0.8014285094
0.8281673352
0.8057102629
0.7834098130
0.7903334305
0.8188265533
0.8519276387
0.8558812966
0.8128846559
0.8539431078
0.8067443886
0.8419252374
0.8523682648
0.8353785061
0.7940401706
0.8592733662
0.8700035176
0.8628425043
0.8920338590
0.8552348888
0.9018490751
0.8849235870
0.8502189469
0.8968833644
0.9014111907
0.9034727671
0.9012718882
0.8586830289
0.8485697740
0.8742061849
0.8589738939
0.8897197417
0.8985744707
0.8601361966
0.8637441401
0.8677024403
0.8956963385
0.8553460235
0.9042646231
0.8773359985
0.8917362779
0.8997258942
0.9038676195
0.8972079961
0.8599993474
0.8818504910
0.8562653958
0.8967438017
0.9001443354
0.9155069633
0.8809716370
0.8608994132
0.8976358568
0.8316372987
0.8078270524
0.9144836135
0.9180750059
0.8472082187
0.8863204364
0.8558555435
0.8450023853
0.8987422703
0.9095348667
0.9190612451
0.7950024889
0.8536729272
0.8569175043
0.8248681015
0.8376927189
0.8157505357
0.8796312978
0.8843786829
0.8871800202
0.8062064212
0.8903667230
0.9096180378
0.8138039404
0.9133872880
0.8777282249
0.8591809392
0.8919045904
0.8238063592
0.8008515700
0.9109288409
0.9206450115
0.8429759386
0.8878732707
0.8531330190
0.8390638625
0.9046732994
0.9044410085
0.9161969931
0.7903177299
0.8520157474
0.8550350800
0.8182894110
0.8316440126
0.8128816133
0.8771928382
0.8871048774
0.8821426149
0.7974724346
0.8940086013
0.9145106580
0.8118895719
0.8510444662
0.9054237800
0.8639528119
0.8842734512
0.8758806105
0.9065463667
0.8759914350
0.9026239744
0.8266525167
0.8281584737
0.8387252268
0.9035235985
0.8384760345
0.8617529995
0.8650091177
0.9042877218
0.8582671074
0.8617165404
0.8979138042
0.8753166140
0.8960490035
0.8505000424
0.8904454885
0.8493156006
0.8601177569
0.8694488989
0.8505664983
0.8669338317
0.8485307001
0.9015322740
0.8655922315
0.8765227716
0.8790427962
0.9074810415
0.8828786823
0.9034942915
0.8240763980
0.8258894815
0.8375512964
0.9069529664
0.8408113587
0.8646121455
0.8649749965
0.9019799882
0.8587077862
0.8585490772
0.8917343906
0.8716056991
0.9000991638
0.8976927037
0.8583580950
0.8638531408
0.8532186752
0.8704444969
0.8773235936
0.9241865241
0.8942839125
0.9096945931
0.8935875030
0.8863249472
0.8985271028
0.9077124003
0.8348699569
0.9147466006
0.9155304613
0.9064009312
0.9147253944
0.8954441396
0.8459900510
0.8982349456
0.8700793464
0.8843816543
0.8791835381
0.8766215914
0.9015717923
0.8208345776
0.9097928578
0.9190840867
0.8806797986
0.9213259791
0.8982108750
0.9127848457
0.9090289725
0.8019265273
0.8698450276
0.9096327131
0.8550346306
0.8789578873
0.8854166656
0.9318362780
0.9267650666
0.8791931096
0.9043146897
0.9262525662
0.8987499396
0.9180881529
0.9308634384
0.8138002488
0.8609203430
0.8903700592
0.8862858070
0.9199615158
0.8802467136
0.9280639952
0.9009913282
0.9096140120
0.9104752915
0.8906279532
0.8853580218
0.8945027365
0.9113046125
0.8286922135
0.9145125286
0.9214456157
0.9099314619
0.8985489757
0.8409985455
0.9038783408
0.8717801539
0.8827227822
0.8827215631
0.9044922397
0.8182856046
0.9137393512
0.9196864707
0.8872187813
0.9164711978
0.9068257863
0.9052707869
0.7974577879
0.8694804095
0.8921730213
0.9040345714
0.8525350118
0.8766269980
0.9294649132
0.9239256356
0.8834818694
0.8993203635
0.9231300966
0.8940096029
0.9145253489
0.9338619206
0.8073747553
0.8574974322
0.8878776614
0.8921369756
0.8376711975
0.9005899943
0.9405092920
0.9414866765
0.9069779096
0.8498127920
0.8296304963
0.8848122101
0.8408143153
0.9110523086
0.8753672939
0.8637996540
0.8722665897
0.9470452403
0.8189373422
0.8281577997
0.8257577602
0.9065632068
0.8460854452
0.8470896621
0.9463402954
0.8990549243
0.8343259445
0.9259160435
0.9379074165
0.8510470595
0.8361727907
0.8681125053
0.8681140541
0.8539973456
0.8632207691
0.8711740489
0.9392995088
0.8530719215
0.8684309151
0.8084597519
0.8241539577
0.8722250982
0.9103365621
0.8308942943
0.8354516262
0.8611586456
0.8302431072
0.9256170349
0.8320905385
0.9045236928
0.9439980737
0.9384834657
0.9040253682
0.8313465554
0.8774631624
0.8375539425
0.9069691867
0.8627410900
0.8684297670
0.9451841964
0.8133511218
0.8258877738
0.8225836648
0.9065728780
0.8444500825
0.8427586942
0.9473625214
0.8923379279
0.8308947418
0.9310487016
0.9324686827
0.8482111193
0.8387263821
0.8646117124
0.8466303438
0.8507909184
0.8639730977
0.8665041536
0.9385410115
0.8505682830
0.8044109748
0.8240731853
0.8350032820
0.8660740404
0.9154950739
0.8273930395
0.8343242789
0.8573116422
0.9194022700
0.8741639918
0.8189326242
0.8470894955
0.8954442565
0.8084500693
0.9155288783
0.8907111419
0.8660881118
0.8602812239
0.8926872743
0.8432532608
0.8177807986
0.8511151741
0.9254693798
0.8487658253
0.8965953909
0.8318139000
0.8573221987
0.8608013653
0.8965979703
0.8821483863
0.9015723877
0.8429755672
0.9097738423
0.9109671723
0.8944612461
0.8772000216
0.9254815389
0.8507745113
0.8404603090
0.9241901611
0.9044669917
0.8894273436
0.8336318535
0.8773159791
0.8235411602
0.9077145974
0.8954872172
0.8877598447
0.8868644465
0.9187008478
0.8719370062
0.8383556057
0.9137958615
0.9321508600
0.8871073292
0.9115484173
0.9333794528
0.8632906661
0.8372773414
0.9115533909
0.9206848323
0.8376671863
0.8726589103
0.9026534325
0.8314528913
0.8257540072
0.9147435014
0.8688028241
0.8133445055
0.8427558897
0.8913281169
0.8043977066
0.9113041427
0.8877595819
0.9093343271
0.8611715666
0.8626640578
0.8960249040
0.8452424488
0.8141414414
0.8529078197
0.8446403916
0.8335854009
0.8540029609
0.8573204311
0.8885265194
0.9014374636
0.8986939711
0.8422691548
0.9166465366
0.9257522341
0.9262665481
0.8489061842
0.8360597082
0.9198836991
0.8833336815
0.8355207607
0.8220370990
0.9044939206
0.9333699879
0.8913283730
0.8902938062
0.8696503923
0.8398899790
0.9280686084
0.9322184206
0.8580136402
0.8375050895
0.9174493924
0.9308690339
0.8320868415
0.8759481089
0.9083157824
0.8266038198
0.8225781510
0.9010338553
0.8507931974