<VTKFile type="UnstructuredGrid" version="0.1">
	<UnstructuredGrid>
		<Piece NumberOfPoints="1862" NumberOfCells="3498">
			<CellData>
				<DataArray type="Int32" Name="type" NumberOfComponents="1" Format="ascii">
0
0
0
0
0
0
0
0
0
0
0
0
0
0
0
0
1
0
0
1
0
0
0
0
0
0
0
0
0
0
0
0
0
1
0
0
0
0
0
0
0
0
0
0
0
0
0
0
0
0
1
0
0
0
0
0
0
0
0
0
0
1
0
0
0
0
0
0
0
0
0
0
0
0
0
0
0
0
0
0
0
0
0
0
0
0
0
0
0
0
0
0
0
0
0
0
0
0
0
0
0
0
0
0
0
0
0
0
0
0
0
0
0
0
0
0
0
0
0
0
0
0
0
1
0
0
0
0
0
0
0
0
0
0
0
0
0
0
0
0
0
0
0
0
0
0
0
0
0
0
0
1
0
1
1
0
0
0
0
0
0
0
0
0
0
0
0
0
1
0
1
0
0
0
0
1
0
0
0
0
0
0
0
0
1
1
0
0
0
0
0
1
0
0
0
0
0
0
0
0
1
0
0
0
0
0
0
0
0
0
0
0
0
0
0
0
0
0
0
0
0
0
0
0
0
0
0
0
0
0
0
0
0
1
0
0
0
0
0
0
0
0
0
0
0
0
0
0
0
0
0
0
0
0
0
0
0
0
0
0
0
0
0
0
0
0
0
0
0
0
0
0
0
0
0
0
0
0
0
0
0
1
0
0
0
0
0
0
0
0
0
0
0
0
0
0
0
0
0
0
0
0
0
0
0
0
0
0
0
0
0
0
0
0
0
0
0
0
0
0
0
0
0
0
0
0
0
0
0
0
0
0
1
0
0
0
0
0
0
0
0
0
0
0
0
0
0
0
0
0
0
0
0
0
0
0
0
0
0
0
0
0
0
0
0
0
0
0
0
0
0
0
0
0
0
0
0
0
0
0
0
0
0
0
0
0
0
0
0
0
1
0
0
0
0
0
0
0
0
0
0
0
0
0
0
0
0
0
0
0
0
0
0
0
0
0
0
0
0
0
0
0
0
0
0
0
0
0
0
0
0
0
0
0
0
0
0
0
0
0
0
0
0
0
0
0
0
0
0
0
0
0
0
0
0
0
0
0
0
0
0
0
0
0
0
0
0
0
0
0
0
0
0
0
0
0
0
0
0
0
0
0
0
0
0
0
0
0
0
0
0
0
0
0
0
0
0
0
0
0
0
0
0
0
0
0
0
0
0
0
0
0
0
0
0
0
0
0
0
0
0
0
0
1
0
0
0
0
0
0
0
0
0
0
0
0
0
0
0
0
0
0
0
1
0
0
0
0
0
0
0
0
0
0
0
0
0
0
0
0
0
0
0
0
0
0
0
0
0
0
0
0
0
0
0
0
0
0
0
0
0
0
0
0
0
0
0
0
0
0
0
0
0
0
0
0
0
1
0
0
0
0
0
0
0
0
0
0
0
0
0
0
0
0
0
0
0
0
0
0
0
1
0
0
0
0
0
0
0
0
0
0
0
0
0
0
0
0
0
0
0
1
0
0
0
1
0
0
0
0
0
0
0
0
0
0
0
0
0
0
0
0
0
0
0
0
0
0
0
0
0
1
0
0
0
0
0
0
0
1
0
0
0
0
0
0
0
0
0
0
0
0
0
0
0
0
0
0
0
0
0
0
0
0
0
0
1
0
0
0
0
0
0
0
1
0
0
0
0
0
0
1
0
0
0
0
0
0
0
0
0
0
0
0
0
0
0
0
0
0
0
0
0
0
0
0
0
0
0
0
0
0
0
0
0
0
0
0
0
0
1
0
0
0
0
0
1
0
0
0
0
0
0
0
1
0
0
0
0
0
0
0
0
0
0
0
0
0
1
0
0
0
0
0
0
0
0
0
0
0
0
0
0
0
0
0
0
0
0
0
0
0
0
0
0
0
0
0
0
0
0
0
0
0
0
0
0
0
0
0
0
0
0
0
0
0
0
0
0
0
0
0
1
0
0
0
0
0
0
0
0
0
0
0
0
0
0
0
0
0
0
0
1
0
0
0
0
0
0
0
0
0
1
0
0
0
0
0
0
0
0
0
0
0
0
0
0
0
0
0
0
0
0
0
0
0
0
0
0
0
0
0
1
0
1
0
0
0
0
0
0
0
0
0
0
0
0
0
0
0
0
0
0
0
0
0
0
0
0
0
0
0
1
0
0
0
1
0
0
0
0
0
0
0
0
0
0
0
0
0
0
0
0
0
0
0
0
0
0
0
0
0
0
0
0
1
0
0
0
0
0
0
0
0
0
0
0
0
0
0
0
0
0
0
0
0
0
0
0
0
0
1
0
0
0
0
0
0
0
0
0
0
0
0
0
0
0
0
0
0
0
0
0
0
0
1
0
0
0
0
0
0
1
0
0
0
0
0
0
0
0
0
0
0
1
0
0
0
0
0
0
0
0
0
0
0
0
0
0
0
0
0
0
0
0
1
0
0
0
0
0
0
0
0
0
0
0
1
0
0
0
0
0
0
0
0
0
0
0
0
0
0
0
0
0
0
0
0
0
1
0
0
0
0
0
0
0
0
0
1
1
0
1
0
1
0
0
0
0
0
0
0
0
0
0
0
1
0
0
0
0
0
1
1
0
0
0
0
0
0
1
0
0
0
0
0
1
1
1
0
0
0
0
0
0
0
0
0
0
0
0
1
1
0
0
1
0
0
0
0
0
1
0
0
0
1
0
1
0
0
0
0
0
0
0
1
0
0
0
0
0
0
0
1
0
0
1
0
0
0
0
0
0
0
0
0
0
0
0
0
0
0
1
0
0
0
0
0
0
0
0
0
0
0
0
0
0
0
0
0
0
0
0
0
0
0
0
0
0
0
0
0
0
0
0
0
0
0
0
1
0
0
0
0
0
0
1
0
0
0
1
0
0
0
0
0
0
0
0
0
0
0
1
0
0
0
0
0
0
0
0
0
0
0
0
0
0
0
0
0
0
0
0
0
0
0
0
0
0
0
0
0
0
0
0
0
0
0
0
0
0
0
0
1
1
0
0
0
0
0
0
0
0
0
0
0
0
0
1
0
0
0
0
0
0
0
0
0
0
0
0
0
0
0
0
0
0
0
0
0
0
0
0
0
0
0
0
0
0
0
0
0
0
0
0
0
0
0
0
0
0
0
0
0
0
0
0
0
0
0
0
0
0
0
0
0
0
0
0
0
0
0
0
0
0
0
0
0
0
0
0
1
1
0
0
0
0
0
0
0
0
1
0
0
0
0
0
0
0
0
0
0
0
0
0
0
0
0
0
0
0
0
0
0
0
1
0
0
0
0
0
0
0
0
0
0
0
0
0
0
0
0
1
0
0
0
0
0
0
0
0
0
0
0
0
0
0
0
0
0
0
0
0
0
0
0
0
0
0
0
0
0
0
0
0
0
0
0
0
0
0
0
0
0
0
0
0
0
0
0
0
0
0
0
0
0
0
0
0
0
0
0
0
0
0
0
0
0
0
0
0
0
0
0
0
0
0
0
0
0
0
0
0
0
0
0
0
0
0
0
0
0
0
1
1
0
0
0
0
0
1
0
0
0
0
0
0
0
0
0
0
0
0
1
0
0
0
0
0
0
0
0
0
0
0
0
0
0
0
0
0
0
0
0
0
0
0
0
0
0
0
0
0
0
0
0
0
0
0
0
0
0
0
0
0
0
0
0
0
0
0
0
0
0
0
0
0
1
0
1
0
0
0
0
0
0
0
0
0
0
0
0
0
0
0
0
0
0
1
0
0
0
0
0
0
0
0
0
0
0
0
0
0
0
0
0
0
0
0
0
0
0
0
0
0
0
0
0
0
0
0
0
0
0
0
0
0
0
0
0
0
0
0
0
0
0
0
0
0
0
0
0
0
0
0
0
0
0
0
0
0
0
0
0
0
0
0
0
0
1
0
0
0
0
0
0
0
0
0
0
1
0
0
0
0
0
0
0
0
0
0
0
0
0
0
0
0
0
0
0
0
0
0
0
0
0
0
0
0
0
0
0
0
0
0
0
0
0
1
0
0
0
0
0
0
0
0
0
0
0
0
0
0
0
0
0
0
0
0
0
0
0
0
0
0
0
0
0
0
0
0
0
0
0
0
0
0
0
0
0
0
0
0
0
0
0
0
0
0
0
0
0
0
0
0
0
0
0
0
0
0
0
0
0
0
0
0
0
0
0
0
0
0
0
0
0
0
0
0
0
1
0
0
0
0
0
0
0
0
0
0
0
0
0
0
0
0
0
0
0
0
0
0
0
0
0
0
0
0
0
0
0
0
0
0
0
0
0
0
0
0
0
0
0
0
0
0
0
0
0
0
0
0
0
0
0
0
0
0
0
0
0
0
0
0
0
0
0
0
0
0
0
0
0
0
0
0
0
0
0
0
0
0
0
0
0
0
0
0
0
0
0
0
0
0
0
0
0
0
0
0
0
0
0
0
0
0
0
0
0
0
0
0
0
0
0
0
0
0
0
0
0
0
0
1
0
0
0
0
0
0
0
0
0
0
0
0
0
0
0
0
0
0
0
0
0
0
0
0
0
0
0
0
0
0
0
0
0
0
0
0
0
0
0
0
0
0
0
0
0
0
0
0
0
0
0
0
0
0
0
0
0
0
0
0
0
0
0
0
0
0
0
0
0
0
0
0
0
0
0
0
0
0
0
0
0
1
0
0
0
0
0
0
0
1
0
0
0
0
0
0
0
0
0
0
0
0
0
0
0
0
0
0
0
0
0
0
0
0
0
0
0
0
0
0
0
0
0
0
0
0
0
1
0
0
0
0
0
0
0
0
0
0
0
0
0
0
0
0
0
0
0
0
0
1
0
0
0
0
0
0
0
0
0
0
0
0
1
1
0
0
0
0
0
0
0
0
0
0
0
0
0
0
0
1
1
0
1
0
0
0
0
0
0
0
0
0
1
0
0
0
0
0
0
1
0
0
0
0
0
0
0
0
0
0
1
0
0
0
0
1
0
1
0
0
0
0
0
0
0
1
0
0
0
1
0
0
0
1
0
1
1
0
0
1
1
0
0
0
1
0
0
0
1
0
0
0
0
0
0
0
0
0
1
0
0
0
0
0
0
1
0
0
0
0
0
0
0
0
0
0
0
0
0
0
0
0
0
0
0
0
0
0
0
0
0
0
0
1
0
0
1
0
0
0
0
0
0
0
0
0
0
0
0
0
0
0
0
0
0
1
0
0
1
0
0
0
0
0
0
0
0
0
0
0
1
0
0
1
0
0
0
0
0
0
0
0
0
0
0
1
1
0
0
0
0
0
0
0
0
0
0
0
0
1
0
0
0
0
0
0
0
0
0
0
0
0
0
0
0
0
0
1
0
0
0
0
0
0
0
0
0
0
0
0
0
0
0
0
0
1
0
0
0
0
0
0
0
0
0
0
0
0
0
0
0
0
0
0
0
0
0
0
0
0
0
0
0
0
0
0
0
0
0
0
0
0
0
0
0
0
1
0
0
0
0
0
0
0
0
0
0
0
0
0
0
0
0
0
0
0
0
0
0
0
0
0
0
0
0
0
0
0
0
0
0
0
0
0
0
0
0
0
0
0
0
0
1
0
0
0
0
0
0
0
0
0
0
0
0
0
0
0
0
0
0
0
0
0
0
0
0
0
0
0
0
0
0
0
0
0
0
0
0
0
0
0
0
0
0
0
0
0
0
0
1
0
0
0
0
0
0
0
0
0
0
1
0
0
0
0
0
0
0
0
0
0
0
0
0
0
0
1
0
0
1
0
0
0
0
0
0
0
0
0
0
0
0
0
0
0
0
0
0
0
0
0
0
0
1
0
0
0
0
0
0
0
0
0
0
0
0
0
0
0
0
0
0
0
0
0
0
0
0
0
0
0
0
0
0
0
0
0
0
0
1
0
0
0
0
0
0
0
0
0
0
0
0
0
0
0
0
0
0
0
0
0
0
0
0
0
0
0
0
0
0
0
0
0
0
0
0
0
0
0
0
0
0
0
0
0
0
0
0
0
0
0
0
0
0
0
0
0
0
0
0
0
0
0
0
0
0
0
0
0
0
0
0
0
0
0
0
1
0
0
0
0
0
0
0
0
0
0
0
0
0
0
0
0
0
0
0
0
0
0
0
0
0
0
0
0
0
0
0
0
0
0
0
0
0
0
0
1
0
0
0
0
0
0
0
0
0
0
0
0
1
1
0
0
0
0
0
0
0
0
0
0
0
0
0
0
0
0
0
0
0
0
0
0
0
0
0
0
0
0
0
0
0
0
0
0
0
0
0
0
0
0
0
0
0
0
0
0
0
0
0
0
0
0
0
0
0
0
0
0
0
0
0
0
0
0
0
0
0
0
0
0
0
0
0
0
0
0
0
0
0
0
0
0
0
0
0
0
0
0
0
0
0
0
0
0
0
0
0
0
0
0
0
1
0
1
0
0
0
0
0
0
0
1
1
1
1
0
0
0
0
0
0
0
0
0
0
0
0
0
0
0
0
0
0
0
0
0
0
0
0
0
0
0
0
1
1
0
0
0
0
0
0
0
0
0
0
0
0
0
0
0
0
0
0
1
0
0
0
0
0
0
0
1
1
0
1
1
0
0
1
0
0
0
0
0
0
0
1
0
1
0
0
0
0
0
0
0
0
0
0
0
0
0
0
0
0
0
0
0
0
0
0
0
0
0
0
0
1
1
0
0
0
1
1
0
0
0
0
1
0
0
1
0
1
0
0
0
0
0
1
0
0
0
1
0
0
0
0
0
0
0
0
0
0
0
0
0
0
0
0
0
0
0
0
0
0
0
0
0
0
0
1
0
0
0
0
0
0
1
0
0
0
0
0
0
0
0
0
0
0
0
0
0
0
0
0
0
0
0
0
0
0
0
0
0
0
0
0
1
0
1
0
0
0
0
0
0
0
1
0
0
0
0
0
0
0
0
0
0
0
1
0
0
0
0
0
0
0
0
0
1
0
0
0
0
0
0
0
1
0
0
0
0
0
0
0
1
0
0
0
0
0
0
0
0
0
0
0
0
0
0
0
0
0
0
0
1
0
1
0
0
0
0
0
1
0
0
0
0
0
0
0
0
0
0
0
0
0
0
0
0
0
0
0
0
0
0
0
0
0
1
0
1
0
0
0
0
0
0
0
0
0
1
0
0
0
0
0
1
0
0
0
0
0
0
0
0
0
0
0
0
0
0
0
1
0
0
0
0
0
0
0
0
1
0
0
0
0
0
0
0
0
0
0
0
0
0
0
0
0
0
0
0
0
0
0
0
0
0
0
0
0
0
0
1
0
0
0
0
0
0
0
0
0
0
0
0
0
0
0
0
1
0
0
0
0
0
0
0
0
1
0
0
0
0
0
0
0
0
0
1
0
0
0
0
0
1
0
0
0
0
0
0
0
0
0
0
0
0
0
0
0
0
0
0
0
1
0
0
0
0
0
0
1
0
0
0
0
0
0
0
0
1
0
0
0
0
0
0
0
0
0
0
0
0
0
0
1
0
0
1
0
0
0
1
0
0
0
0
0
0
0
0
0
0
0
0
0
0
0
0
1
0
0
0
0
0
0
0
0
0
0
1
0
1
0
0
0
0
0
0
1
0
0
0
0
0
0
0
0
0
0
0
0
0
0
0
0
0
0
0
0
0
0
0
0
0
0
0
1
1
0
0
0
0
0
0
1
0
0
0
0
0
0
0
0
0
0
0
0
0
1
0
0
0
0
0
0
0
1
0
0
0
0
0
0
0
0
0
0
0
0
0
0
0
0
0
0
0
0
0
0
0
0
0
0
0
1
0
0
0
0
0
0
0
0
0
0
1
0
0
1
0
0
0
0
0
0
0
0
0
0
0
0
0
0
0
0
0
0
0
0
0
0
0
0
0
0
0
0
0
1
0
0
0
0
0
0
0
1
0
0
0
0
0
0
0
1
0
0
0
0
1
0
0
0
0
0
0
0
0
0
0
0
1
0
1
0
0
0
1
0
				</DataArray>
				<DataArray type="Float64" Name="h" NumberOfComponents="1" Format="ascii">
0.6812732671
0.6810165232
0.7563640565
0.6797388619
0.7636213409
0.7491960953
0.7204964500
0.6457133571
0.7024728215
0.5959198392
0.6545874201
0.7339967686
0.6418294141
0.6212384324
0.6525033588
0.5915428546
0.6986405635
0.6033072135
0.6690069112
0.6290220673
0.7780368415
0.6449755382
0.7099850342
0.7904362657
0.6633482545
0.5802016612
0.6645229386
0.7771816085
0.7505351482
0.6030962959
0.6081143206
0.7235784747
0.6290633085
0.7607913653
0.8593293386
0.7914963570
0.8217567813
0.7028635069
0.7617481261
0.7972098996
0.7647244356
0.8161126830
0.6817265540
0.7430562609
0.8030090351
0.7723455294
0.7191915712
0.8716997945
0.9736243508
0.9554075338
0.8112739492
0.7851479495
0.7592420619
0.8853035352
0.8249999909
0.6723548434
0.7902371560
0.8991625796
0.9053274836
0.8884423016
0.9371917432
0.9295995653
0.9701821258
0.8002916434
0.7462692985
0.8086768698
0.9334503822
0.9511509312
0.9234263031
0.9133431945
0.9084933875
0.8392047979
0.6881299817
0.9052074085
0.9065927043
0.7205678708
0.8994843344
0.9327665761
0.8891251945
0.7481183003
0.9579880468
0.8352362719
1.0049699605
0.9275596192
0.7110989059
0.7667495150
0.9652537066
0.8946108279
0.9361333674
0.9958578873
0.9685814756
0.7423825352
0.9444217918
0.9836543466
0.8180200577
0.7892275914
0.8507155014
0.7292843016
0.7666606161
0.9652410535
0.9986316983
0.9583000833
0.8656353877
0.8875749797
0.5741566134
0.9045427711
0.7896775183
0.9849565409
0.9299920650
0.8378849269
0.9732525373
0.9873416364
0.9568383816
0.9701774415
0.9017440892
1.0006553728
0.8798836484
0.5840611214
0.9890473819
0.9293975606
0.5772723036
0.8705340607
0.7352346859
0.5719090946
0.9566700863
0.9883749544
0.9109588647
0.5719621854
0.9970679705
1.0018519002
0.9884895908
0.8153203336
0.9359681675
1.0064204411
0.5805995647
0.9863730455
0.5653402004
1.0083689563
0.9772018495
0.5950743264
0.5718413430
0.5735583050
0.9951795958
0.6257099698
0.7608065410
0.9811050658
0.5714355365
1.0179071814
0.5732985881
1.0244874463
0.5621271592
1.0135252670
1.0138762464
1.0268493598
0.9715381793
1.0108885239
1.0257567429
0.5708546461
1.0239740261
0.5710268294
0.6065892059
1.0179354266
0.5637784103
0.5696347134
0.5718266895
1.0090810152
0.6534022258
0.5778793909
0.5699742470
1.0129212334
1.0231695831
0.5712030717
1.0264189940
0.5695003163
0.6574779409
1.0346162717
0.6360884355
1.0183427835
1.0334089864
0.5690271991
1.0084586957
0.6671022683
0.5702453397
0.7278252308
0.5699460076
0.5717903708
0.6694147652
1.0295992160
0.5706959118
0.5750811489
0.6710545485
1.0322534318
0.5714809440
0.6771602864
1.0343637044
1.0147424113
0.5658919685
0.6748718048
0.6824620373
1.0267423182
0.5746617891
0.7548979034
0.5731249411
1.0291379099
0.6825725063
0.5664062879
0.5671291329
0.5583899450
0.6899725134
0.6163371292
0.6510757603
0.5725338353
0.5663647687
0.5690364252
0.5585921332
0.6535930217
0.5909610841
0.5637202669
0.6476745912
0.5695370801
0.7025829956
0.9866564854
0.6373730251
0.9480924989
0.7509375958
1.0222576313
1.0057738929
0.8675370125
0.6982929156
0.9979537963
1.0256038613
0.9710233759
0.8101030788
1.0252089966
1.0183009976
0.9137024474
0.6450145230
0.5594321971
0.5721663567
0.6028795285
0.6258264394
0.5518673474
0.5620046278
0.6231371920
0.5560578193
0.5724415225
0.5649997978
0.6438291273
0.5518279041
0.5584677809
0.5802023212
0.6245603578
0.5614103341
0.6473171607
0.6278506513
0.5645444920
0.5989693652
0.5589063034
0.5690507183
0.9628870488
0.6177214998
0.7243473458
0.8370953006
0.9345588508
0.7796472543
1.0156695998
1.0190748391
0.6736085964
1.0231517427
0.9844883844
1.0048623660
0.6382432548
0.9944101473
0.8923357247
0.9339034195
0.6750066964
0.7798635794
0.8906377883
0.9652834879
0.7230246824
1.0034013701
1.0217449102
1.0194849014
1.0155396282
0.9966122396
0.9817236671
0.8383495522
0.5493098912
0.5598545952
0.5565581887
0.5628035819
0.6212760537
0.5449611972
0.5495583120
0.5851597007
0.6057796508
0.6055765837
0.5439199252
0.5524555738
0.5645564137
0.5589569180
0.5514489562
0.6204161513
0.6106349990
0.6253497784
0.5647682804
0.6041270472
0.5860014214
0.5554928815
0.7097108999
0.8655045807
0.8148500045
1.0196497852
0.6562779575
1.0033222462
0.9523843518
0.5984605968
0.9923698853
1.0160994975
0.6166748688
0.9157793359
0.7528311549
0.9794700521
1.0129004251
0.7605563142
0.8104870971
0.8675796883
1.0164724755
0.9146094965
0.9772339421
1.0018403926
1.0131890929
1.0183715788
0.6668089716
0.9540837987
0.6999328441
0.9944419583
0.5500965394
1.0069488124
0.5623826920
0.5918648986
0.5829757823
0.5538284320
0.6032064838
0.5380549436
0.5383154802
0.5422249862
0.5505484722
0.9941755206
0.8315705341
0.6043573097
0.9017323598
0.5425410609
0.5491826535
0.9998805135
0.5481438716
0.8778388638
0.5841338767
0.5660615834
0.9307668938
0.9562554041
1.0001867949
0.5589651331
0.5989663047
0.6171272312
0.5357537713
0.5146677647
0.8343129730
0.8516779553
0.5527409277
0.8853781153
0.9637717825
0.5461564120
1.0132986136
0.9366422491
0.8984629992
1.0104994445
0.5320682781
1.0010357533
0.7120307785
0.6592047439
0.9882857438
1.0162687921
0.5751950909
0.9704767326
0.5938580931
0.7401607996
0.8443488078
0.8048921717
0.5156910182
1.0150769672
0.6844704959
0.8937269315
0.3493411284
1.0108541785
0.9392213657
0.5315568104
0.5358815954
0.5345845886
0.4316118712
0.7559167740
0.9997400449
0.4665960204
0.9684313224
0.3912610809
1.0137159057
0.9900971651
0.6932846454
0.7923309454
0.4956000341
0.8529091656
0.7917088564
0.9417710249
0.8951323551
0.5368313153
1.0010557055
0.9896953296
0.5570722464
0.9293397473
0.7743383259
0.3650904403
0.3888432298
0.5348601305
0.9794781459
0.9982580528
0.8734170774
1.0080659315
0.5474846428
0.9414141602
0.5894403648
0.8331611199
0.9957264652
0.9005594247
0.9829165628
0.8754896454
0.8757774379
0.9325743338
0.9702719025
1.0053801427
0.3019244032
0.9283919029
0.9127766737
0.5334854787
0.9155927457
0.6947388371
0.5457511280
0.8021307954
0.9312728796
0.9077651071
0.9283308159
0.9042185240
1.0096274367
0.5527444938
0.7566406892
0.5800403432
0.3888363082
0.9797566755
0.9651868286
0.9023629632
0.9740458453
0.5426317389
0.6045294926
0.5260377463
1.0129777378
0.5686859563
0.9202968148
0.8380497456
0.7457153297
0.3748955078
0.5288226186
1.0082282265
0.5337988666
0.9810356680
0.5367884262
0.6780784555
0.8342820404
0.9554517662
0.4859373883
0.5413841346
0.5307231145
0.5312335975
0.5404882400
0.5262771571
1.0110034471
0.9279641595
0.9348616928
0.9959852106
0.5338268317
0.8787492890
0.5480664044
0.8982036877
0.7099945922
0.9475864825
0.5366483270
0.5315519154
0.5286495672
0.5298123521
0.9365102850
0.9557909820
0.5379991009
0.9206932099
0.9212606001
0.5129547474
0.5345731838
0.4315991238
0.5360406347
0.7896310851
0.5464233027
0.5643212228
0.9118541705
0.5338347111
0.5364875006
0.9193850822
0.5338118433
0.2665015922
0.5413896964
0.9108001229
0.5804601523
0.5390152561
0.5202190366
0.5365339689
0.9159363313
0.9228159445
1.0036629182
0.5232972939
0.9216266297
0.5430470196
0.9198291922
0.2954063961
0.4991915183
0.9141571292
0.5260465160
0.8994066286
0.5278165374
0.5288208019
0.3362916695
0.5366573147
0.5298233842
0.5464259965
0.2953995955
0.5405430668
0.3815953851
0.5420153018
0.5430109561
0.4753945992
0.5220417481
0.5338259268
0.5368186689
0.4299488402
0.5587353807
0.9836946256
0.5131866329
0.5250145014
0.2708520272
0.5355297598
0.2528493615
0.4870410590
0.5606443800
0.9464628600
0.9809247321
0.5088792142
0.5508285026
0.9652114481
0.5262825656
0.2985792861
0.9703233667
0.5360590748
0.8380483588
0.9169217996
1.0095974820
0.5156939018
0.9240693973
0.9176879132
0.9227263451
0.7743373232
0.5345857414
0.6580292475
0.3958668972
0.9193927773
0.4759412920
0.5170740999
0.9078378172
0.9207017155
0.5419136787
0.8814646174
0.5277062669
1.0053567015
0.9418517038
0.8021220374
0.5150129925
1.0080424090
0.2940039916
0.5293362949
0.2726424522
0.4793948299
0.7566482161
0.4500542916
0.5376329176
0.9489410352
0.4548763143
0.3325312219
0.4940809147
0.9451765661
0.5230015794
0.8734517885
0.4616012710
0.3296990027
0.9280624500
0.9896969398
0.5231019777
0.3681040238
0.5295871265
0.9235476746
0.5389826141
0.3958590621
0.5259609347
0.9117090358
0.5278168016
0.5157040741
0.4992189765
0.5233011820
0.9866842087
0.2395756346
0.5321482423
0.5390212891
0.5072248169
0.5514401839
0.9351214879
0.5355365620
0.4492387583
0.3296939976
0.5239817425
0.4079915989
0.4870705165
0.5202240684
0.5088980869
0.5250183141
0.9265465273
0.9376326515
0.9212389720
0.9067898451
0.5430146202
0.3424312251
0.3003802253
0.4629752859
0.9572357241
0.9198669316
0.2708487934
0.4135267562
0.9334973692
0.6418970953
0.5155596389
0.5321527948
0.5277683883
0.7126508610
0.4875987101
0.4319483275
0.5220454858
0.9220172598
0.5224760887
0.5355170701
0.5286803827
0.9166013910
0.9313939216
0.9385134682
0.9176392786
0.5710401293
0.5039353689
0.5296395231
0.5263110245
0.9382838319
0.9402624740
0.3362817871
0.3701532294
0.3297218156
0.4889150658
0.9280280176
0.5228639243
0.4795856534
0.9476520492
0.9457608688
0.4577563609
0.4546092681
0.9341452070
0.4440827664
0.4174077464
0.5893623142
0.9409210619
0.9458587275
0.9456842977
0.4899466379
0.5275299841
0.6011310180
0.5281465216
0.5007578598
0.9403890777
0.9467976765
0.9255007245
0.9325742621
0.6945940242
0.9513060104
0.9529592427
0.5481472644
0.9376183734
0.9319458219
0.5230797086
0.9544455855
0.5131703354
0.9433137064
0.5620213880
0.5557444245
0.9543458688
0.5389603526
0.9506160607
0.9427769253
0.5508116541
0.9392821106
0.5475977544
0.5228130032
0.9364291609
0.9394252571
0.5327033395
0.7066160108
0.7203932685
0.7201461437
0.7062911992
0.7098058723
0.7341168025
0.6547051515
0.6687179598
0.7523410696
0.7493682104
0.7634475449
0.7520945309
0.7022669878
0.6526521109
0.7206659681
0.6133379464
0.6685635749
0.7096589579
0.6328476920
0.6033478663
0.6796251038
0.7562308508
0.6693246408
0.6031333196
0.6019432068
0.7259957160
0.6455787643
0.5802156859
0.6634209509
0.5958863309
0.6312752088
0.6416783021
0.7812012929
0.6086690880
0.6851807138
0.6132775468
0.6081419915
0.6327525381
0.7608515551
0.6292236991
0.7239878842
0.6437018388
0.7973133810
0.7405466798
0.6985958242
0.5914973677
0.6820737498
0.7620413277
0.7259022852
0.6019029375
0.7649962634
0.6211846063
0.6290033154
0.7810965052
0.7095272305
0.8731612821
0.6447687039
0.8228984821
0.6311440245
0.7779561261
0.6847986295
0.6696472328
0.8051702981
0.8717279624
0.6085945270
0.8031430744
0.8113232713
0.7196448016
0.7768367058
0.7903057754
0.7501656468
0.7905401344
0.7265509208
0.6642554394
0.8365688669
0.5912380356
0.7403150519
0.8307536529
0.8580266730
0.6435033430
0.7596283278
0.8731332385
0.9691870182
0.9563845696
0.6692821444
0.8228272185
0.8295321770
0.8049372922
0.7913128815
0.7466672088
0.7024530644
0.8599399057
0.8592910605
0.9701623642
0.9511182876
0.8209079016
0.8217009511
0.8004881909
0.8306404420
0.8870837509
0.8904968828
0.7426134705
0.9052102247
0.8796268997
0.8392896643
0.6883633618
0.9143302841
0.7023874245
0.7271143100
0.8365055019
0.9368772887
0.8579935875
0.8159506570
0.8994938695
0.9084953125
0.9126873887
0.9066058861
0.7262971274
0.7075984036
0.9234285785
0.8501243996
0.5912047404
0.9133524968
0.8294451788
0.8599003205
0.7903005003
0.8207214487
0.9346809712
0.8646262861
0.9496645328
0.9736565410
0.7848816102
0.9564218716
0.7720007742
0.8353470848
0.9274721551
0.8457659074
0.9692391689
0.9554813307
0.9371868621
0.9295905039
0.7072678806
0.9461640945
0.9126811526
0.9053214088
0.8830026308
0.8795834147
0.7034739982
0.6892655330
0.8870700457
0.8500892298
0.8532054048
0.8248820614
0.9220556917
0.9143193081
0.9368743330
0.6721225944
0.8504926004
0.9119431845
0.7022577579
0.8852456741
0.8904857680
0.8884122001
0.7424563968
0.8991528540
0.7267874985
0.9444228280
0.9347258197
0.8875920069
0.7669062674
0.8456930975
0.6973077892
0.8645844598
0.9583032985
0.9259999307
0.9537778348
0.9094546715
0.8084615354
0.9986848814
0.9336211174
0.8789257501
0.7294316087
0.9518148270
0.7893791860
0.8582787646
0.9498705318
0.9652453165
0.9044954204
0.7901035239
1.0073893936
0.8503933708
0.9299874473
0.9873448835
0.9461652419
0.9119399285
0.9568235069
0.8531491122
0.7206023654
0.9675095289
0.8829811349
0.9327727688
0.6891078507
0.9709901884
0.7034741361
0.9731882705
0.8379995858
0.9220523520
0.9537806701
1.0073157896
0.8744205166
0.9518083052
0.7667077341
0.8699654781
0.9302588222
0.8789028926
0.5794525199
0.8582101881
0.9094371173
0.7110670712
0.7479991031
0.9652499944
1.0048889299
0.9579824901
0.8799711928
0.8891080143
0.9261136807
0.5772672080
0.8947031214
0.6972420057
0.9709876325
0.8157415761
0.9542951833
0.5714417613
0.9883963464
0.9512613481
0.9732014627
0.9361408710
0.8179533914
0.9836810013
0.9983596580
0.9958114634
0.9685785675
0.9858628974
0.9048678376
0.9566309224
0.9109739733
0.9676117330
1.0018843081
0.8657421797
0.9999852559
0.9455756914
0.8743446053
0.5794454670
0.9302561213
0.9740253305
0.5806025138
0.9863899045
0.9359568737
0.5741593481
0.8506389235
0.7607998873
0.9292444690
0.5735555271
0.9516855672
0.5714520402
0.9983195257
0.9701864084
0.9849434324
0.5706801594
0.9048513788
0.9732072036
0.9017097408
0.5732926543
0.9544531779
0.9951988930
0.5707203249
1.0006218093
0.9512754019
0.9811182524
0.9858430074
0.7897336613
0.5759703187
0.7127774517
0.9149671086
1.0183378294
0.9999405723
0.9740404742
0.5645216298
1.0041746661
0.9971874966
0.9763217463
0.9294233833
0.9457698910
1.0135253385
0.5840508318
0.9826979179
0.9890294114
0.5881046138
0.5621137153
1.0138899424
0.9715458829
0.5706931512
0.5707257961
0.5778894769
0.5718178927
0.9517310085
1.0213075206
0.5759729944
0.5709826845
1.0213056245
0.8940269369
0.9293842398
0.5719131769
0.9970531139
0.6066926686
0.5734471750
0.7353113562
0.9884762620
0.5826921485
0.5637624221
0.9916130452
1.0179712328
0.5719684751
1.0239924367
0.9763117869
0.5653637261
1.0064132302
1.0157508206
0.8718991510
0.9971340143
1.0075277798
1.0083474231
1.0264171032
0.5914412733
0.5683742392
0.9771949596
0.5880938412
0.9152079285
0.5645299247
1.0183351894
0.7128345013
0.9826882566
1.0129550666
0.9932939690
1.0041614241
1.0231650562
0.5694920985
1.0244637407
0.5702349937
0.8468379015
0.5734551571
0.5709895584
1.0065387956
1.0203498397
1.0275656089
0.6255347000
1.0178635301
0.5714341252
0.5690196448
1.0212699168
0.5826876840
0.8941741735
0.5695451969
0.5718497187
1.0085050771
0.9916006991
0.6362610232
0.9885566945
0.5950111113
1.0212843836
0.5712745361
0.5706884159
1.0108486121
1.0257562754
0.5683809002
0.8136007702
1.0157296023
0.5769587871
0.5914357347
0.8721722369
0.5699354613
1.0074981466
1.0268535724
0.5708603993
0.9932859620
0.6695058285
0.7847486008
1.0343735271
0.6532174689
0.5712828710
1.0064756912
1.0148122116
0.5695535990
1.0275583120
0.9885487967
1.0141764728
0.5712908816
1.0203350258
0.8467438935
0.5705231475
1.0322548014
1.0023732876
0.5696412647
1.0090245581
0.6771576471
1.0214019296
0.5710362011
0.7547790107
1.0321539307
0.5712125327
0.5731123588
0.6573530035
1.0291468924
0.8137985948
0.5699803395
0.5746473621
0.5769594038
0.6824062482
1.0303706836
1.0334038736
0.5688009649
0.5713012420
0.5705309634
0.5725220550
1.0213601203
1.0141199649
0.5676746400
1.0119553167
0.6670751210
1.0023680886
1.0346035311
0.7848654562
0.5739541672
0.5736446384
1.0182857004
0.5663577816
0.6898992621
0.6710932336
1.0256206928
1.0321443613
0.5750954803
1.0303618242
1.0261412591
1.0287030003
0.7279219488
0.5718018076
1.0295925754
0.7025033824
0.5649910188
0.5724469317
0.5638673232
0.5560553103
0.6749434136
0.5736593114
0.6599347402
0.5713245248
0.6232272043
0.5608642012
0.5688069778
0.6449428520
0.5714935080
0.5722679036
1.0118749967
0.5658984972
0.5698392122
0.5588990153
0.5579386679
0.6472388908
0.5990407721
0.5614060350
0.6437898403
0.5739691768
0.5721511707
0.5676838633
1.0227157620
0.6550221715
0.6826454490
1.0261256420
0.9816331589
0.6382713775
1.0286944994
0.9335479088
0.7229573697
1.0195263627
1.0034674423
1.0128776850
0.8380535746
0.6735474618
0.9944190760
1.0267310882
0.9626511188
0.7795234323
1.0231678511
1.0100949921
1.0157393690
0.8919493594
0.6511348129
0.5628058615
0.5548319353
0.5695490437
0.6056093190
0.6212098393
0.5608675901
0.6600172144
0.5638728866
0.5688749145
0.6353489575
0.5495632499
0.5598490272
0.5713361399
0.6162158377
0.5583952623
0.5671297224
0.5664166299
0.6476753795
0.5514476537
0.5554926060
0.5722827154
0.5860336741
0.6203657917
0.5637268199
0.6536734589
0.6252736873
0.5518249959
0.5661248890
0.5909017496
0.5579411202
0.5586026557
0.5698534575
0.9711482273
0.6166628771
0.6384589265
0.6997785153
0.8103376534
0.9142152247
0.8102836844
1.0100095543
1.0182428951
1.0165199605
0.6983857647
1.0251970283
1.0108168183
0.9770631414
1.0018725331
0.6372886088
1.0226872383
0.9979174140
0.9140056416
0.9483315078
0.6562245651
0.7528295120
0.8651985193
0.9520481398
0.7510550236
1.0056979530
1.0127939640
1.0196744024
0.6551110055
1.0222325862
1.0129669655
0.9923313198
1.0082603812
0.9866924966
0.8679479066
0.5500948400
0.5483921832
0.5620124370
0.5688855459
0.5538281424
0.5594349267
0.6258933147
0.6276337095
0.5422324487
0.6354240299
0.5518657082
0.5829767007
0.6031440654
0.6028157230
0.5548310449
0.5425426365
0.5491894052
0.5661377146
0.5611776007
0.5518300004
0.6245922265
0.6170554020
0.5452118796
0.6279248657
0.5518209265
0.5660664731
0.5989215081
0.5801698470
0.5584706551
0.6931364802
0.8909807105
0.7923134475
1.0217266806
0.6751641134
0.9997437658
0.9655238686
0.5938365787
0.9966115029
1.0081963947
1.0099495012
1.0137574426
0.6410797419
0.6176959913
0.8934579505
0.7799782093
0.9682257590
1.0154733972
0.7403269668
0.8373444968
0.8442085575
1.0190382098
0.6385422973
1.0064295119
0.9349293683
0.9845808598
1.0048095099
1.0105453821
1.0162994601
0.6591503899
0.9363390283
0.7244608876
0.9882123148
1.0107399233
1.0010716482
0.8331665316
0.6285663093
0.9292916916
0.5493116632
0.5483873707
1.0042276891
0.9928160084
0.5570583223
0.8634277675
0.5893874810
0.5851332218
0.9076675696
0.9794594808
1.0030135135
0.5565625656
0.6058424886
0.6277149274
0.5348651095
0.5368235451
0.5449575073
0.7917214809
0.4771948841
0.8757729297
0.5474898834
0.8697666642
0.9557819585
0.5421117546
1.0005697276
0.8079106857
0.6044748138
0.9146382767
0.5439176134
0.5524528338
1.0056241604
0.9940316910
0.5457411833
0.8591606229
0.5800017035
0.5647555330
0.9193033655
0.9710940744
1.0036934707
0.5611882224
0.6041637959
0.6107115763
0.5385040412
0.5334838320
0.5452086968
0.6560171882
0.7311081157
0.8555993241
0.5553220781
0.8871978602
0.9780445079
0.5426344798
0.5001087456
1.0110343187
0.6377148654
0.9543769170
0.3435773554
1.0079636847
0.8786348146
1.0131316815
0.5307261269
0.5325220176
0.5319228229
0.9959809998
0.5480808993
0.4324779481
0.7099689705
1.0063929074
0.6669137586
0.4496820736
0.9944743827
0.3785042876
1.0183461807
0.5686625695
0.9556354111
0.5984591608
0.7605642159
0.8678264822
0.5058039640
0.7896488501
0.5129691199
1.0130094496
0.6780515173
0.9161193828
0.3325416612
1.0082570298
0.9201232726
1.0098956850
0.5322114790
0.5316063373
0.5422970817
1.0041162788
0.5391771236
0.4171867451
0.7457280562
1.0032985668
0.6411415682
0.4548910886
0.9796184647
0.3749089090
1.0160559962
0.9809613987
0.7095629099
0.8149608326
0.4859519184
0.8342481940
0.7962314719
0.9267884777
0.9581653985
1.0051102683
0.5804856520
0.8634317693
0.9159309324
0.9090066491
0.5383200272
1.0054457448
0.9080166930
0.9969642275
1.0054693562
0.2774901450
0.5623813699
0.9442216828
0.7715781216
0.4771859938
0.8277067326
0.4342646135
0.9381709862
0.5380531295
0.9900402263
1.0029894769
0.8876070129
0.9464313670
0.9441620189
0.9141356406
1.0103963457
0.5505472646
0.7057674788
0.9558221791
0.5919243479
0.5146613360
0.3651008183
0.9836914598
0.9809109227
0.8276931377
0.8993976429
0.9890908953
0.9076946734
0.9928109217
0.9588014455
0.5421139850
0.6286265253
0.8697644248
0.8847703406
0.9982701108
0.8315777244
0.9415872060
0.9826107583
0.9413788551
1.0090363148
0.3321293497
0.8343064781
0.9173295493
0.9051496209
0.5357520975
1.0042048973
0.9142210361
1.0003335432
0.4556210716
0.5481457510
0.9562993824
0.8084148762
0.3580269523
0.3580361031
0.9227237745
0.5385062971
0.9941632967
0.9998695783
0.9250749598
0.9388511408
0.9055976597
1.0118054125
0.5553296332
0.7446544262
0.8754905627
0.9308108141
0.5841695185
0.4342796043
0.9866936035
0.9785096349
0.8516726897
0.8897702278
0.9919848546
0.8872056820
0.9780668530
0.9618267117
0.5461482602
0.6044278497
0.8591546900
0.9017648103
0.5288423673
1.0150462387
0.9235304299
0.9451506228
1.0040943254
0.5752073564
0.5312282735
0.9394500009
0.5391635143
0.9240720181
0.8487921495
0.7558715844
0.3912481086
0.9489229224
0.5360627289
0.5325168628
0.5318130136
1.0108138359
0.5307182477
0.5403861149
0.9334742951
0.9901475970
0.5397191850
0.9181817477
0.9269432745
0.5000969184
0.5358716597
0.4166999763
0.4166875691
0.5533241421
0.6844973502
0.8530160248
0.9662833260
0.4955877211
0.3880459154
0.5444953450
0.5320658751
0.6580405147
0.9030557136
0.5355084747
0.5451973531
0.5672826318
0.5327865616
0.9168446559
0.5288686153
1.0132567673
0.9280415245
0.9415640011
1.0010272632
0.5319908592
0.8986620539
0.5422842428
0.9242702040
0.7120740336
0.3880320537
0.9572236702
0.5406299595
0.5316034978
0.5326271210
1.0079323095
0.5293505551
0.5329417134
0.9405185540
0.9706330991
0.5355003272
0.9176537901
0.9222272350
0.5156786524
0.5319137009
0.4171719365
0.5155339609
0.5489935013
0.6377477951
0.8049163235
0.9645943757
0.5057895395
0.5490826123
0.5322099193
0.5328132368
0.5917728250
0.9191665077
0.5316843401
0.5397303693
0.5584086401
0.9132795124
0.3259443622
0.5360692189
0.5403966362
0.2774842153
0.5444958723
0.9080316313
0.3019161327
0.5918120327
0.3729665442
0.7868666377
0.5474655009
0.5360380912
0.4718295608
0.9903799775
0.5128962842
0.8960740151
0.5367228765
0.5584574734
0.4145096857
0.8960782802
0.8555967992
0.9381681041
0.5436617955
0.9900407663
1.0055967603
0.2665053455
0.6559969936
0.9903815437
0.4938061350
0.5210962674
0.9268160703
0.9711402293
0.2652015415
0.5385601859
0.7962380428
0.5314579454
0.9090144395
0.8853849628
0.3102454866
0.2590149637
0.9829079033
0.4780158752
0.5685714650
1.0069217235
0.9470512083
0.7310882742
0.9203297882
0.9740813480
0.4754101150
0.5509893986
0.9203560349
0.9598424525
0.5288496466
0.2958483279
0.8948629153
0.5258599940
0.5318098499
0.9637983107
0.3203003096
0.5406341681
0.5329502484
0.2732502110
0.5490879834
0.9051601493
0.3102364502
0.9198233080
0.5673367291
0.3606201938
0.9283895129
0.5296002588
0.5405211661
0.4546263285
0.5177381516
0.5355757189
0.5533558805
0.4070838175
0.8951245573
0.9023698325
0.6947183362
0.5557630630
1.0001594989
0.9216024491
0.9890891552
0.4966624278
0.5232328403
0.9156141001
0.2675112447
0.5355823028
0.5319404881
0.9227286227
0.9740675076
0.2732547295
0.2546785658
0.4539337017
0.5620401013
0.9416187096
0.9740652590
0.4927225180
0.5533452142
0.9283598003
0.9588293957
0.5288715043
0.2889758678
0.9042322048
0.5288134313
0.5326263236
0.9826584562
0.5490104910