<VTKFile type="UnstructuredGrid" version="0.1">
	<UnstructuredGrid>
		<Piece NumberOfPoints="1862" NumberOfCells="3498">
			<CellData>
				<DataArray type="Int32" Name="type" NumberOfComponents="1" Format="ascii">
0
0
0
0
0
0
0
0
0
0
0
0
0
0
0
0
1
0
0
1
0
0
0
0
0
0
0
0
0
0
0
0
0
1
0
0
0
0
0
0
0
0
0
0
0
0
0
0
0
0
1
0
0
0
0
0
0
0
0
0
0
1
0
0
0
0
0
0
0
0
0
0
0
0
0
0
0
0
0
0
0
0
0
0
0
0
0
0
0
0
0
0
0
0
0
0
0
0
0
0
0
0
0
0
0
0
0
0
0
0
0
0
0
0
0
0
0
0
0
0
0
0
0
1
0
0
0
0
0
0
0
0
0
0
0
0
0
0
0
0
0
0
0
0
0
0
0
0
0
0
0
1
0
1
1
0
0
0
0
0
0
0
0
0
0
0
0
0
1
0
1
0
0
0
0
1
0
0
0
0
0
0
0
0
1
1
0
0
0
0
0
1
0
0
0
0
0
0
0
0
1
0
0
0
0
0
0
0
0
0
0
0
0
0
0
0
0
0
0
0
0
0
0
0
0
0
0
0
0
0
0
0
0
1
0
0
0
0
0
0
0
0
0
0
0
0
0
0
0
0
0
0
0
0
0
0
0
0
0
0
0
0
0
0
0
0
0
0
0
0
0
0
0
0
0
0
0
0
0
0
0
1
0
0
0
0
0
0
0
0
0
0
0
0
0
0
0
0
0
0
0
0
0
0
0
0
0
0
0
0
0
0
0
0
0
0
0
0
0
0
0
0
0
0
0
0
0
0
0
0
0
0
1
0
0
0
0
0
0
0
0
0
0
0
0
0
0
0
0
0
0
0
0
0
0
0
0
0
0
0
0
0
0
0
0
0
0
0
0
0
0
0
0
0
0
0
0
0
0
0
0
0
0
0
0
0
0
0
0
0
1
0
0
0
0
0
0
0
0
0
0
0
0
0
0
0
0
0
0
0
0
0
0
0
0
0
0
0
0
0
0
0
0
0
0
0
0
0
0
0
0
0
0
0
0
0
0
0
0
0
0
0
0
0
0
0
0
0
0
0
0
0
0
0
0
0
0
0
0
0
0
0
0
0
0
0
0
0
0
0
0
0
0
0
0
0
0
0
0
0
0
0
0
0
0
0
0
0
0
0
0
0
0
0
0
0
0
0
0
0
0
0
0
0
0
0
0
0
0
0
0
0
0
0
0
0
0
0
0
0
0
0
0
1
0
0
0
0
0
0
0
0
0
0
0
0
0
0
0
0
0
0
0
1
0
0
0
0
0
0
0
0
0
0
0
0
0
0
0
0
0
0
0
0
0
0
0
0
0
0
0
0
0
0
0
0
0
0
0
0
0
0
0
0
0
0
0
0
0
0
0
0
0
0
0
0
0
1
0
0
0
0
0
0
0
0
0
0
0
0
0
0
0
0
0
0
0
0
0
0
0
1
0
0
0
0
0
0
0
0
0
0
0
0
0
0
0
0
0
0
0
1
0
0
0
1
0
0
0
0
0
0
0
0
0
0
0
0
0
0
0
0
0
0
0
0
0
0
0
0
0
1
0
0
0
0
0
0
0
1
0
0
0
0
0
0
0
0
0
0
0
0
0
0
0
0
0
0
0
0
0
0
0
0
0
0
1
0
0
0
0
0
0
0
1
0
0
0
0
0
0
1
0
0
0
0
0
0
0
0
0
0
0
0
0
0
0
0
0
0
0
0
0
0
0
0
0
0
0
0
0
0
0
0
0
0
0
0
0
0
1
0
0
0
0
0
1
0
0
0
0
0
0
0
1
0
0
0
0
0
0
0
0
0
0
0
0
0
1
0
0
0
0
0
0
0
0
0
0
0
0
0
0
0
0
0
0
0
0
0
0
0
0
0
0
0
0
0
0
0
0
0
0
0
0
0
0
0
0
0
0
0
0
0
0
0
0
0
0
0
0
0
1
0
0
0
0
0
0
0
0
0
0
0
0
0
0
0
0
0
0
0
1
0
0
0
0
0
0
0
0
0
1
0
0
0
0
0
0
0
0
0
0
0
0
0
0
0
0
0
0
0
0
0
0
0
0
0
0
0
0
0
1
0
1
0
0
0
0
0
0
0
0
0
0
0
0
0
0
0
0
0
0
0
0
0
0
0
0
0
0
0
1
0
0
0
1
0
0
0
0
0
0
0
0
0
0
0
0
0
0
0
0
0
0
0
0
0
0
0
0
0
0
0
0
1
0
0
0
0
0
0
0
0
0
0
0
0
0
0
0
0
0
0
0
0
0
0
0
0
0
1
0
0
0
0
0
0
0
0
0
0
0
0
0
0
0
0
0
0
0
0
0
0
0
1
0
0
0
0
0
0
1
0
0
0
0
0
0
0
0
0
0
0
1
0
0
0
0
0
0
0
0
0
0
0
0
0
0
0
0
0
0
0
0
1
0
0
0
0
0
0
0
0
0
0
0
1
0
0
0
0
0
0
0
0
0
0
0
0
0
0
0
0
0
0
0
0
0
1
0
0
0
0
0
0
0
0
0
1
1
0
1
0
1
0
0
0
0
0
0
0
0
0
0
0
1
0
0
0
0
0
1
1
0
0
0
0
0
0
1
0
0
0
0
0
1
1
1
0
0
0
0
0
0
0
0
0
0
0
0
1
1
0
0
1
0
0
0
0
0
1
0
0
0
1
0
1
0
0
0
0
0
0
0
1
0
0
0
0
0
0
0
1
0
0
1
0
0
0
0
0
0
0
0
0
0
0
0
0
0
0
1
0
0
0
0
0
0
0
0
0
0
0
0
0
0
0
0
0
0
0
0
0
0
0
0
0
0
0
0
0
0
0
0
0
0
0
0
1
0
0
0
0
0
0
1
0
0
0
1
0
0
0
0
0
0
0
0
0
0
0
1
0
0
0
0
0
0
0
0
0
0
0
0
0
0
0
0
0
0
0
0
0
0
0
0
0
0
0
0
0
0
0
0
0
0
0
0
0
0
0
0
1
1
0
0
0
0
0
0
0
0
0
0
0
0
0
1
0
0
0
0
0
0
0
0
0
0
0
0
0
0
0
0
0
0
0
0
0
0
0
0
0
0
0
0
0
0
0
0
0
0
0
0
0
0
0
0
0
0
0
0
0
0
0
0
0
0
0
0
0
0
0
0
0
0
0
0
0
0
0
0
0
0
0
0
0
0
0
0
1
1
0
0
0
0
0
0
0
0
1
0
0
0
0
0
0
0
0
0
0
0
0
0
0
0
0
0
0
0
0
0
0
0
1
0
0
0
0
0
0
0
0
0
0
0
0
0
0
0
0
1
0
0
0
0
0
0
0
0
0
0
0
0
0
0
0
0
0
0
0
0
0
0
0
0
0
0
0
0
0
0
0
0
0
0
0
0
0
0
0
0
0
0
0
0
0
0
0
0
0
0
0
0
0
0
0
0
0
0
0
0
0
0
0
0
0
0
0
0
0
0
0
0
0
0
0
0
0
0
0
0
0
0
0
0
0
0
0
0
0
0
1
1
0
0
0
0
0
1
0
0
0
0
0
0
0
0
0
0
0
0
1
0
0
0
0
0
0
0
0
0
0
0
0
0
0
0
0
0
0
0
0
0
0
0
0
0
0
0
0
0
0
0
0
0
0
0
0
0
0
0
0
0
0
0
0
0
0
0
0
0
0
0
0
0
1
0
1
0
0
0
0
0
0
0
0
0
0
0
0
0
0
0
0
0
0
1
0
0
0
0
0
0
0
0
0
0
0
0
0
0
0
0
0
0
0
0
0
0
0
0
0
0
0
0
0
0
0
0
0
0
0
0
0
0
0
0
0
0
0
0
0
0
0
0
0
0
0
0
0
0
0
0
0
0
0
0
0
0
0
0
0
0
0
0
0
0
1
0
0
0
0
0
0
0
0
0
0
1
0
0
0
0
0
0
0
0
0
0
0
0
0
0
0
0
0
0
0
0
0
0
0
0
0
0
0
0
0
0
0
0
0
0
0
0
0
1
0
0
0
0
0
0
0
0
0
0
0
0
0
0
0
0
0
0
0
0
0
0
0
0
0
0
0
0
0
0
0
0
0
0
0
0
0
0
0
0
0
0
0
0
0
0
0
0
0
0
0
0
0
0
0
0
0
0
0
0
0
0
0
0
0
0
0
0
0
0
0
0
0
0
0
0
0
0
0
0
0
1
0
0
0
0
0
0
0
0
0
0
0
0
0
0
0
0
0
0
0
0
0
0
0
0
0
0
0
0
0
0
0
0
0
0
0
0
0
0
0
0
0
0
0
0
0
0
0
0
0
0
0
0
0
0
0
0
0
0
0
0
0
0
0
0
0
0
0
0
0
0
0
0
0
0
0
0
0
0
0
0
0
0
0
0
0
0
0
0
0
0
0
0
0
0
0
0
0
0
0
0
0
0
0
0
0
0
0
0
0
0
0
0
0
0
0
0
0
0
0
0
0
0
0
1
0
0
0
0
0
0
0
0
0
0
0
0
0
0
0
0
0
0
0
0
0
0
0
0
0
0
0
0
0
0
0
0
0
0
0
0
0
0
0
0
0
0
0
0
0
0
0
0
0
0
0
0
0
0
0
0
0
0
0
0
0
0
0
0
0
0
0
0
0
0
0
0
0
0
0
0
0
0
0
0
0
1
0
0
0
0
0
0
0
1
0
0
0
0
0
0
0
0
0
0
0
0
0
0
0
0
0
0
0
0
0
0
0
0
0
0
0
0
0
0
0
0
0
0
0
0
0
1
0
0
0
0
0
0
0
0
0
0
0
0
0
0
0
0
0
0
0
0
0
1
0
0
0
0
0
0
0
0
0
0
0
0
1
1
0
0
0
0
0
0
0
0
0
0
0
0
0
0
0
1
1
0
1
0
0
0
0
0
0
0
0
0
1
0
0
0
0
0
0
1
0
0
0
0
0
0
0
0
0
0
1
0
0
0
0
1
0
1
0
0
0
0
0
0
0
1
0
0
0
1
0
0
0
1
0
1
1
0
0
1
1
0
0
0
1
0
0
0
1
0
0
0
0
0
0
0
0
0
1
0
0
0
0
0
0
1
0
0
0
0
0
0
0
0
0
0
0
0
0
0
0
0
0
0
0
0
0
0
0
0
0
0
0
1
0
0
1
0
0
0
0
0
0
0
0
0
0
0
0
0
0
0
0
0
0
1
0
0
1
0
0
0
0
0
0
0
0
0
0
0
1
0
0
1
0
0
0
0
0
0
0
0
0
0
0
1
1
0
0
0
0
0
0
0
0
0
0
0
0
1
0
0
0
0
0
0
0
0
0
0
0
0
0
0
0
0
0
1
0
0
0
0
0
0
0
0
0
0
0
0
0
0
0
0
0
1
0
0
0
0
0
0
0
0
0
0
0
0
0
0
0
0
0
0
0
0
0
0
0
0
0
0
0
0
0
0
0
0
0
0
0
0
0
0
0
0
1
0
0
0
0
0
0
0
0
0
0
0
0
0
0
0
0
0
0
0
0
0
0
0
0
0
0
0
0
0
0
0
0
0
0
0
0
0
0
0
0
0
0
0
0
0
1
0
0
0
0
0
0
0
0
0
0
0
0
0
0
0
0
0
0
0
0
0
0
0
0
0
0
0
0
0
0
0
0
0
0
0
0
0
0
0
0
0
0
0
0
0
0
0
1
0
0
0
0
0
0
0
0
0
0
1
0
0
0
0
0
0
0
0
0
0
0
0
0
0
0
1
0
0
1
0
0
0
0
0
0
0
0
0
0
0
0
0
0
0
0
0
0
0
0
0
0
0
1
0
0
0
0
0
0
0
0
0
0
0
0
0
0
0
0
0
0
0
0
0
0
0
0
0
0
0
0
0
0
0
0
0
0
0
1
0
0
0
0
0
0
0
0
0
0
0
0
0
0
0
0
0
0
0
0
0
0
0
0
0
0
0
0
0
0
0
0
0
0
0
0
0
0
0
0
0
0
0
0
0
0
0
0
0
0
0
0
0
0
0
0
0
0
0
0
0
0
0
0
0
0
0
0
0
0
0
0
0
0
0
0
1
0
0
0
0
0
0
0
0
0
0
0
0
0
0
0
0
0
0
0
0
0
0
0
0
0
0
0
0
0
0
0
0
0
0
0
0
0
0
0
1
0
0
0
0
0
0
0
0
0
0
0
0
1
1
0
0
0
0
0
0
0
0
0
0
0
0
0
0
0
0
0
0
0
0
0
0
0
0
0
0
0
0
0
0
0
0
0
0
0
0
0
0
0
0
0
0
0
0
0
0
0
0
0
0
0
0
0
0
0
0
0
0
0
0
0
0
0
0
0
0
0
0
0
0
0
0
0
0
0
0
0
0
0
0
0
0
0
0
0
0
0
0
0
0
0
0
0
0
0
0
0
0
0
0
0
1
0
1
0
0
0
0
0
0
0
1
1
1
1
0
0
0
0
0
0
0
0
0
0
0
0
0
0
0
0
0
0
0
0
0
0
0
0
0
0
0
0
1
1
0
0
0
0
0
0
0
0
0
0
0
0
0
0
0
0
0
0
1
0
0
0
0
0
0
0
1
1
0
1
1
0
0
1
0
0
0
0
0
0
0
1
0
1
0
0
0
0
0
0
0
0
0
0
0
0
0
0
0
0
0
0
0
0
0
0
0
0
0
0
0
1
1
0
0
0
1
1
0
0
0
0
1
0
0
1
0
1
0
0
0
0
0
1
0
0
0
1
0
0
0
0
0
0
0
0
0
0
0
0
0
0
0
0
0
0
0
0
0
0
0
0
0
0
0
1
0
0
0
0
0
0
1
0
0
0
0
0
0
0
0
0
0
0
0
0
0
0
0
0
0
0
0
0
0
0
0
0
0
0
0
0
1
0
1
0
0
0
0
0
0
0
1
0
0
0
0
0
0
0
0
0
0
0
1
0
0
0
0
0
0
0
0
0
1
0
0
0
0
0
0
0
1
0
0
0
0
0
0
0
1
0
0
0
0
0
0
0
0
0
0
0
0
0
0
0
0
0
0
0
1
0
1
0
0
0
0
0
1
0
0
0
0
0
0
0
0
0
0
0
0
0
0
0
0
0
0
0
0
0
0
0
0
0
1
0
1
0
0
0
0
0
0
0
0
0
1
0
0
0
0
0
1
0
0
0
0
0
0
0
0
0
0
0
0
0
0
0
1
0
0
0
0
0
0
0
0
1
0
0
0
0
0
0
0
0
0
0
0
0
0
0
0
0
0
0
0
0
0
0
0
0
0
0
0
0
0
0
1
0
0
0
0
0
0
0
0
0
0
0
0
0
0
0
0
1
0
0
0
0
0
0
0
0
1
0
0
0
0
0
0
0
0
0
1
0
0
0
0
0
1
0
0
0
0
0
0
0
0
0
0
0
0
0
0
0
0
0
0
0
1
0
0
0
0
0
0
1
0
0
0
0
0
0
0
0
1
0
0
0
0
0
0
0
0
0
0
0
0
0
0
1
0
0
1
0
0
0
1
0
0
0
0
0
0
0
0
0
0
0
0
0
0
0
0
1
0
0
0
0
0
0
0
0
0
0
1
0
1
0
0
0
0
0
0
1
0
0
0
0
0
0
0
0
0
0
0
0
0
0
0
0
0
0
0
0
0
0
0
0
0
0
0
1
1
0
0
0
0
0
0
1
0
0
0
0
0
0
0
0
0
0
0
0
0
1
0
0
0
0
0
0
0
1
0
0
0
0
0
0
0
0
0
0
0
0
0
0
0
0
0
0
0
0
0
0
0
0
0
0
0
1
0
0
0
0
0
0
0
0
0
0
1
0
0
1
0
0
0
0
0
0
0
0
0
0
0
0
0
0
0
0
0
0
0
0
0
0
0
0
0
0
0
0
0
1
0
0
0
0
0
0
0
1
0
0
0
0
0
0
0
1
0
0
0
0
1
0
0
0
0
0
0
0
0
0
0
0
1
0
1
0
0
0
1
0
				</DataArray>
				<DataArray type="Float64" Name="h" NumberOfComponents="1" Format="ascii">
0.7432804315
0.7432651753
0.7615459012
0.7543651443
0.7605955898
0.7613895715
0.7558969340
0.7432566648
0.7527312192
0.7379463277
0.7483812694
0.7606471135
0.7358991916
0.7488024009
0.7427524995
0.7253098546
0.7563743490
0.7381756261
0.7374717638
0.7506570054
0.7676810472
0.7296313580
0.7391076188
0.7695667567
0.7509568081
0.7277758120
0.7179316186
0.7444394360
0.7511295868
0.7408489589
0.7445953024
0.7455913406
0.7223694316
0.7676220503
0.7989098243
0.7650646690
0.7812476882
0.7280441106
0.7358308762
0.7716678377
0.7566990984
0.7676026384
0.7264105651
0.7417551138
0.7701482207
0.7472564386
0.7362207091
0.8046402095
0.8605580402
0.8441119883
0.7812344675
0.7580401569
0.7490369849
0.7990780542
0.7762576316
0.7137419542
0.7556008289
0.8195519566
0.8209079166
0.8055957617
0.8441262826
0.8395980024
0.8582424523
0.7648206401
0.7368632072
0.7543408033
0.8246147271
0.8416833181
0.8347964629
0.8291973394
0.8230697176
0.7843612296
0.7129781081
0.8127258956
0.8178836040
0.7049339894
0.8197616675
0.8387079242
0.8140816865
0.7235441505
0.8565543091
0.7687259508
0.8917382381
0.8219816823
0.7055378740
0.7295694635
0.8607362595
0.7984167995
0.8374313170
0.8824874537
0.8611361178
0.7172503383
0.8469527307
0.8695879645
0.7565721667
0.7406649627
0.7730626684
0.7160581257
0.7328184881
0.8606286829
0.8848974196
0.8570315625
0.7830650454
0.8137026227
0.7288907896
0.8041374667
0.7396355762
0.8707282841
0.8360538589
0.7659802009
0.8587134739
0.8735313661
0.8528699525
0.8602444767
0.8063652659
0.8832263776
0.7913650535
0.7378090605
0.8749035511
0.8271415958
0.7324739162
0.7820058879
0.7095387035
0.7280252103
0.8500946098
0.8741585089
0.8135592893
0.7257137803
0.8804896975
0.8842424044
0.8749729595
0.7522571453
0.8333268701
0.8856119008
0.7337706220
0.8735030133
0.7231612029
0.8869622142
0.8687679356
0.7164889508
0.7237432454
0.7289300978
0.8791510963
0.7110466013
0.7233748164
0.8708309874
0.7194457696
0.8955967626
0.7265378347
0.8972830822
0.7218330211
0.8889234811
0.8891762597
0.8941225811
0.8654035421
0.8898071018
0.8951953406
0.7277451865
0.8958349190
0.7018681350
0.7140861063
0.8944669394
0.7199427692
0.7166604888
0.7260067626
0.8908759141
0.7037700616
0.7194809897
0.7096059744
0.8903038262
0.8940480118
0.7005019456
0.8948642407
0.7244930381
0.6983541519
0.8972844862
0.7068375882
0.9006955939
0.8986221535
0.7131271946
0.8894321572
0.6894481942
0.6918049767
0.7023864818
0.7044437752
0.6458799024
0.6962993581
0.8974340681
0.6985143425
0.6077263808
0.6819176602
0.8984290936
0.6560428290
0.6894542507
0.8985277071
0.8977598913
0.7135714922
0.6757988644
0.6840164362
0.9002523028
0.5953867190
0.7189964612
0.6345497494
0.8981538880
0.6740361803
0.6756171818
0.7127861394
0.7160511764
0.6821568383
0.6977984269
0.6676027064
0.6659615439
0.7056785317
0.6581407725
0.7159741554
0.6597267109
0.7067354894
0.6957874897
0.6773978464
0.6684667646
0.6858536841
0.8728445209
0.6878459837
0.8363436769
0.7131562800
0.9036334120
0.8949424464
0.7831534598
0.6784774568
0.8856969630
0.9002213113
0.8563902699
0.7494034070
0.9019301569
0.9035151111
0.8117604858
0.6587407040
0.7035043245
0.6461845222
0.6837522711
0.6447168962
0.7095498751
0.6795380456
0.6926712002
0.7157196186
0.7104297965
0.6844331231
0.6695537423
0.7087129128
0.6931934145
0.6949781678
0.6573605187
0.7030073269
0.6508747172
0.6350200207
0.6657599359
0.7026402357
0.7149242636
0.6581084298
0.8502284113
0.6708002374
0.6903596642
0.7690516527
0.8308267238
0.7332973955
0.9042211776
0.9081832117
0.6601135746
0.9039382271
0.8722267551
0.8971509081
0.6811748550
0.8828765809
0.8011524722
0.8280226154
0.6536033664
0.7309025447
0.8025438228
0.8538586947
0.6957714140
0.8933842648
0.9065742755
0.9053401900
0.9076348056
0.8866100882
0.8686827658
0.7694944932
0.6931648818
0.6839768842
0.6791565880
0.7000777159
0.6354726462
0.7020542565
0.7092952740
0.6690388131
0.6230794522
0.6771585451
0.6999601557
0.6885960155
0.6657258294
0.6686424743
0.7066699783
0.6485372305
0.6121045818
0.6262576862
0.6825600945
0.6378147209
0.6899247539
0.6981354694
0.6701264170
0.7894025169
0.7551002509
0.9084197670
0.6347209016
0.8995648091
0.8464690386
0.6536646011
0.8833038317
0.9130971783
0.6629311324
0.8250425470
0.7122229729
0.8717458796
0.9080790752
0.7128755257
0.7527713854
0.7930329910
0.9097189756
0.8206574916
0.8672183443
0.8952193147
0.9119083287
0.9119434753
0.6315669073
0.8510213402
0.6713726975
0.8877828196
0.6887449600
0.9282603875
0.6556878732
0.6057129887
0.6616178480
0.6811069690
0.6141950786
0.6936309841
0.6827544778
0.7011189060
0.6768227254
0.9187431998
0.6874625167
0.5945681175
0.8454023473
0.6972083965
0.6919328579
0.9318498909
0.6707296700
0.7527610910
0.6215032503
0.6765314020
0.8869570521
0.8922832250
0.9353086823
0.6686085566
0.6287249849
0.6044591541
0.6907151495
0.6483823825
0.7032132808
0.7729745271
0.6680593700
0.8281607757
0.9153315740
0.6828325685
0.9180708821
0.8426419982
0.8202175174
0.9119981666
0.6570470805
0.9023661257
0.6537704409
0.6140566537
0.8838560995
0.9134842343
0.6388123117
0.8718775472
0.6452185421
0.6929075310
0.7779017786
0.7440929074
0.6446149924
0.9173845729
0.6162984721
0.8131070877
0.5800116853
0.9162258438
0.8490593817
0.6399844548
0.6698005913
0.6660705886
0.5868665037
0.6986973817
0.8972444198
0.6072087757
0.8658343833
0.5730817869
0.9143588474
0.8894370005
0.6496793680
0.7371563920
0.6276361155
0.7851898470
0.6616066516
0.8664866103
0.7311516535
0.6775305958
0.9255776184
0.9028722104
0.6477297797
0.8716199248
0.6748816835
0.7249836739
0.6172658460
0.6921386630
0.9077635423
0.9348553436
0.8063281629
0.9236986645
0.6766048385
0.9010803394
0.5977830387
0.7282081233
0.9409130491
0.8593858961
0.9253968291
0.7903780272
0.8117277766
0.9419426136
0.8873225872
0.9204758262
0.8569927534
0.8152790834
0.8881138729
0.6872742124
0.9241351592
0.9209418431
0.6639658703
0.7199917673
0.8823795849
0.8396730118
0.9152134611
0.8814511050
0.9239587853
0.6680265198
0.6360597217
0.6125393808
0.6172440045
0.9498186390
0.9344833897
0.8231111812
0.9479408894
0.6851710451
0.5890913520
0.6676859029
0.9187429240
0.6300486273
0.8395902333
0.7660401611
0.6785960317
0.5718547099
0.6833335160
0.9160598677
0.6370232224
0.8849213210
0.6012219193
0.6045997596
0.7690202793
0.9603006374
0.6316102864
0.6717524511
0.6553841892
0.6648320458
0.5829676718
0.6778969099
0.9189627640
0.9852737885
0.9615861799
0.8996434726
0.6693502072
0.8076909913
0.6720646171
1.0120219558
0.6363501993
0.9689501096
0.6784604488
0.6399646642
0.6574983153
0.6536938898
0.9744809633
0.8651822498
0.6602231011
0.9696199109
0.9616000986
0.6511553804
0.6660641061
0.5868688174
0.6188709534
0.7252199586
0.6650739764
0.5948508942
1.0073002866
0.6693571419
0.5870832932
0.9295930042
0.6370260207
1.0111348896
0.6717369820
0.9095103002
0.8504372251
0.6682757597
0.6396816907
0.5871038054
0.8050476202
0.9198430935
0.9341851500
0.6669543089
0.9367144741
0.6316648699
0.8737695468
0.6414301311
0.5899885054
0.9021177921
0.6676661719
0.8537680585
0.6786316588
0.6833064722
0.5402347557
0.6784455997
0.6536836421
0.6650423243
0.6414525708
0.5829722512
0.5637826737
0.6676696452
0.6600286957
0.6191745631
0.6548146903
0.6297658340
0.6012466876
0.5913436467
0.6762319027
0.9493099611
0.6471574691
0.6751403672
0.5191951821
0.6721831713
0.7626060881
0.5831761443
0.6691831230
0.9263445350
0.9396239195
0.6047209385
0.6551941051
0.9344616403
0.6778710323
0.5245807879
0.8873513233
0.6188871667
0.7660160782
0.9734345561
0.9239835955
0.6222990065
0.9552944494
0.9542005492
0.9296873525
0.6748483810
0.6628309188
0.6129385470
1.1010305607
0.9295872912
0.6010042279
0.6517281486
0.8397016646
0.9696154375
0.6112792686
1.0635278503
0.6737316080
0.9204840308
0.8665282985
0.7199563178
0.6047401549
0.9237113821
0.4813663264
0.6633077261
0.4947836083
0.5830278779
0.6360361627
0.5869295211
0.6553145685
0.9676124578
0.6112633963
0.5671787501
0.6189512560
0.9611143859
0.6632814084
0.8063253142
0.5790587651
0.4992555024
0.9769206991
0.9028842662
0.5821592323
0.5190263437
0.6726467985
0.9787841493
0.6144128251
1.1010251366
0.6705240783
0.9979624608
0.6786093443
0.6223021084
0.5900003005
0.6669317534
0.9475994921
1.1568044840
0.6707080211
0.6682552269
0.6365175188
0.5911604806
1.0149414753
0.6721695848
0.5231162572
0.4992674044
0.5761450474
0.4992885643
0.5831751406
0.6396730882
0.6047332977
0.6751160593
1.0066854655
1.0061850810
0.9879386854
1.0257065878
0.6599948360
0.4901403320
0.4901071085
0.5933023191
0.9650851352
0.9746391191
0.5192272712
0.5478334529
0.9731636608
0.6266641367
0.6440174090
0.6609418369
0.6710681885
0.6800955938
0.6106768716
0.5813823784
0.6547972378
0.9945672923
0.6570278297
0.6545476257
0.6715903119
0.9855688587
1.0155639920
0.9956765347
0.9880321762
0.5963078278
0.6275931315
0.6688119828
0.6662690886
0.9821482716
0.9826050783
0.5402624371
0.4885301376
0.5170299228
0.5514163991
1.0126884827
0.5510042119
0.5207916537
0.9968059244
1.0167157782
0.6163650930
0.6043394992
1.0248909399
0.5763115547
0.5302006638
0.5851215036
1.0325369990
1.0038674246
1.0285922677
0.6084612742
0.6354397244
0.6040351624
0.5891750176
0.5694172378
1.0317826354
1.0349109121
0.9986535388
1.0194860047
0.6690637396
1.0276926946
1.0103506436
0.5962519678
1.0061993761
1.0078332668
0.5821460113
1.0032258798
0.6471859332
1.0071726691
0.6645493045
0.6658680995
1.0042261124
0.6141871763
1.0112175945
0.9906185867
0.6551547314
0.9877792342
0.6298663532
0.5911343981
0.9896438838
0.9784159802
0.6330577988
0.7467726634
0.7520628644
0.7520503354
0.7467255089
0.7564190652
0.7606404558
0.7483821527
0.7509101840
0.7571736998
0.7613944641
0.7605846127
0.7571469530
0.7527184738
0.7427664503
0.7558910438
0.7436458438
0.7509116940
0.7564249392
0.7396017089
0.7381820641
0.7543851704
0.7615486960
0.7375128105
0.7408548198
0.7319248323
0.7574925381
0.7432478076
0.7277774972
0.7509391419
0.7379445009
0.7319302614
0.7358880284
0.7711467567
0.7240221443
0.7362308611
0.7436390285
0.7445957116
0.7395936517
0.7676061604
0.7223746091
0.7456464274
0.7194614429
0.7716685134
0.7247749990
0.7563898168
0.7253111458
0.7264649031
0.7359441822
0.7575000825
0.7319208384
0.7567392935
0.7488020105
0.7506808367
0.7711520657
0.7390197411
0.8039224393
0.7296052438
0.7833523121
0.7319161936
0.7676899507
0.7361931850
0.7295732048
0.7571772744
0.8046257256
0.7240174712
0.7701686500
0.7812144512
0.7363098569
0.7443070164
0.7695550015
0.7510602953
0.7556911207
0.7230648160
0.7179159020
0.7851063461
0.7339080820
0.7246791278
0.7755333691
0.7980619574
0.7194541768
0.7491181926
0.8039296629
0.8557807912
0.8473236166
0.7295236075
0.7833596170
0.7829451757
0.7570939795
0.7650244073
0.7369835427
0.7279548424
0.7943001931
0.7989229048
0.8582103367
0.8416227647
0.7655088982
0.7812611541
0.7648759054
0.7754878579
0.8105672580
0.8107628460
0.7416279608
0.8127017403
0.7995381458
0.7843793209
0.7130108975
0.8300928869
0.7092541966
0.7270131553
0.7851093729
0.8438030877
0.7980822788
0.7675518649
0.8197439017
0.8230507610
0.8188199223
0.8178719528
0.7229640384
0.7236193469
0.8347761667
0.7962604023
0.7339072643
0.8291767565
0.7829367095
0.7942977719
0.7453976485
0.7654368381
0.8291942571
0.7950868080
0.8380127166
0.8606027002
0.7579683322
0.8473779992
0.7471343472
0.7688044506
0.8219260321
0.7788881415
0.8558474625
0.8441846396
0.8441409209
0.8396138209
0.7235296171
0.8487926006
0.8188379160
0.8209227292
0.8056416243
0.7995183660
0.6979470905
0.7081904939
0.8105775365
0.7962830699
0.7875660888
0.7762224111
0.8339417646
0.8301090468
0.8438213780
0.7137180743
0.7771424949
0.8223768571
0.7092384545
0.7990457121
0.8107695266
0.8055857466
0.7172795773
0.8195724148
0.7269035679
0.8469383341
0.8292302774
0.8136786085
0.7329147712
0.7788318642
0.7026650773
0.7950714507
0.8570217307
0.8182151832
0.8526269213
0.8083707433
0.7542550927
0.8849069444
0.8246925335
0.8092835199
0.7161258493
0.8532016086
0.7407318125
0.7864411741
0.8381075127
0.8606228155
0.8040547242
0.7453171510
0.8927660701
0.7770719365
0.8360363009
0.8734939393
0.8488099339
0.8223947086
0.8528485823
0.7875384918
0.7049781657
0.8533793686
0.8056388712
0.8387302755
0.7081534118
0.8631564380
0.6979589064
0.8586168454
0.7660546533
0.8339591194
0.8526413877
0.8927526045
0.7919119811
0.8532111703
0.7295618224
0.7819998421
0.8318393217
0.8093058885
0.7344428527
0.7864013257
0.8083908978
0.7055485313
0.7235034748
0.8607429322
0.8917082317
0.8565615454
0.7914083185
0.8140997850
0.8183362343
0.7324718789
0.7984718859
0.7026619277
0.8631606283
0.7522709975
0.8408020868
0.7273288035
0.8741534465
0.8479484364
0.8628976322
0.8374499839
0.7565293823
0.8696563836
0.8817155735
0.8824882867
0.8611398001
0.8718294588
0.8243409460
0.8500573592
0.8135441382
0.8535174817
0.8842623215
0.7830415784
0.8842540624
0.8341480666
0.7918670988
0.7344457890
0.8318562499
0.8622560432
0.7337738627
0.8735095638
0.8332987155
0.7288961798
0.7731307930
0.7233682917
0.8201221770
0.7289319395
0.8452172817
0.7273464526
0.8817023549
0.8602573034
0.8707423873
0.7249841225
0.8243591734
0.8629096569
0.8063724316
0.7265356358
0.8409315044
0.8791651933
0.7166726640
0.8832017563
0.8479690356
0.8708396094
0.8718286986
0.7396716627
0.7349028817
0.6974708278
0.8119176481
0.8907886596
0.8842588769
0.8622797608
0.7216282589
0.8840775353
0.8821837175
0.8681420607
0.8271699138
0.8343410076
0.8889369220
0.7378035311
0.8716947237
0.8749009873
0.7423562954
0.7217965277
0.8891944147
0.8654027869
0.7249977707
0.7166704251
0.7194913907
0.7259964829
0.8452675752
0.8939947334
0.7349005272
0.7169740433
0.8977184165
0.7972407735
0.8202891108
0.7280205874
0.8804752500
0.7140907346
0.7299896477
0.7095995796
0.8749661218
0.7374072740
0.7199326543
0.8771562480
0.8944857563
0.7257149856
0.8958446595
0.8681380988
0.7231966377
0.8855966571
0.8911185257
0.7859785357
0.8821716414
0.8873177937
0.8869399871
0.8948673353
0.7453635386
0.7269443820
0.8687664928
0.7423493711
0.8121263072
0.7216530900
0.8907754008
0.6975127273
0.8716885015
0.8903234372
0.8783196272
0.8840600104
0.8940531447
0.7244748725
0.8972716352
0.6917978323
0.7693083064
0.7299967785
0.7169782669
0.8900545916
0.8926145692
0.8963047312
0.7110513075
0.8955772501
0.7194387547
0.7131125549
0.8977056232
0.7374021853
0.7973741013
0.7037543374
0.7237552875
0.8894637441
0.8771440304
0.7068443977
0.8756509775
0.7164887420
0.8939818704
0.7100945993
0.6985184359
0.8897780863
0.8951914962
0.7269646410
0.7532325286
0.8911017928
0.7382991006
0.7453633519
0.7861466848
0.7044613356
0.8872923479
0.8941142107
0.7277523380
0.8783104399
0.6962718729
0.7343076902
0.8985457287
0.7037685620
0.7100998375
0.8900172687
0.8977899488
0.7037667400
0.8962957252
0.8756445158
0.8949364701
0.6856749399
0.8926031594
0.7694107725
0.7152616785
0.8984417975
0.8832888124
0.7166682989
0.8908204220
0.6894019926
0.8998946138
0.7018710605
0.7189212188
0.8976444376
0.7004906685
0.6345668356
0.6983533381
0.8981659976
0.7533452059
0.7095970873
0.5954038373
0.7382928297
0.6839693900
0.8983166567
0.8986062421
0.7210121670
0.6856729737
0.7152645481
0.6659732644
0.8998770424
0.8949066135
0.6952554601
0.8976820698
0.6894955805
0.8832771052
0.8972694964
0.7343662606
0.6291612694
0.6104270575
0.9006737085
0.7056615887
0.6820963937
0.6819468032
0.9002298389
0.8976248651
0.6077071600
0.8983020043
0.8986915364
0.8987294049
0.7024542383
0.6458583506
0.8974215626
0.6857887902
0.6844276610
0.7104380383
0.7182494855
0.7157008114
0.6758497535
0.6104042596
0.6566465771
0.6760651016
0.6926691329
0.7104825668
0.7210295724
0.6587053709
0.6560301041
0.6287014343
0.8976514557
0.7135885069
0.6442101112
0.7149203738
0.7130891327
0.6507987422
0.7026422793
0.7029919258
0.6695153366
0.6291366426
0.6462137455
0.6952697577
0.9015312908
0.6487497626
0.6740952530
0.8986849204
0.8685480482
0.6811343461
0.8987178950
0.8277468038
0.6957202753
0.9053472914
0.8933954651
0.9007782235
0.7693082152
0.6600745805
0.8828263779
0.9002486544
0.8500112720
0.7332034256
0.9039327517
0.9004022871
0.9042466640
0.8008845623
0.6676276929
0.7000963626
0.7051432327
0.6684593249
0.6771507248
0.6354199662
0.7104974488
0.6567128861
0.7182706814
0.6829042374
0.6308700287
0.7093067022
0.6839745270
0.6760616368
0.6978081689
0.7160752039
0.7127811082
0.6756139880
0.6774671496
0.7066865793
0.6981296039
0.6286704393
0.6899324823
0.6485066453
0.6958045896
0.6597996276
0.6262151761
0.7069316335
0.6553234531
0.7067355047
0.7131033182
0.7159943312
0.6441716142
0.8565522425
0.6628889455
0.6234441275
0.6713711439
0.7526846886
0.8203803954
0.7495253775
0.9003701207
0.9034918137
0.9097229345
0.6785445083
0.9019315538
0.9040657204
0.8670398080
0.8951933961
0.6878636355
0.9015250593
0.8857196441
0.8119924557
0.8365584216
0.6347194028
0.7121951250
0.7892028065
0.8462203604
0.7132380684
0.8949204993
0.9007465809
0.9084064787
0.6487938063
0.9036238956
0.9080979288
0.8832069156
0.9033494257
0.8729386284
0.7833527205
0.6887753131
0.6983527721
0.6795348518
0.6829073490
0.6811105371
0.7034960339
0.6447546037
0.6078483593
0.7011555525
0.6308905897
0.7095504971
0.6616075117
0.6141454232
0.6837572146
0.7051459665
0.6972476583
0.6919375839
0.6552805176
0.6619938184
0.7087135061
0.6574063021
0.6044238723
0.6997078597
0.6350938876
0.7069225677
0.6765435016
0.6286927366
0.6949699842
0.6932057010
0.6497066806
0.8027901072
0.7371364769
0.9065866721
0.6536312399
0.8971935245
0.8540709903
0.6451897897
0.8866768066
0.9033361544
0.9074740878
0.9143548604
0.6031177691
0.6708239597
0.8129275523
0.7309878063
0.8656640606
0.9076133700
0.6929284986
0.7692098667
0.7778223246
0.9081763233
0.6234574587
0.9064329622
0.8310839561
0.8723701640
0.8971554427
0.9120028054
0.9134620572
0.6140646224
0.8424234883
0.6904021265
0.8837486492
0.9040428716
0.9255765730
0.7282432449
0.5925263469
0.8716228172
0.6931361354
0.6983427688
0.9288685918
0.9264030021
0.6477245876
0.7217493100
0.5977422761
0.6690376910
0.8644302750
0.9077721315
0.9341022082
0.6791491557
0.6231236655
0.6078738696
0.6921723400
0.6775558105
0.7020313644
0.6616206837
0.6933346992
0.8117606786
0.6766155117
0.7975418780
0.9044058769
0.6908527943
0.9201660428
0.6940001269
0.5890683974
0.8537017154
0.6999306873
0.6886002094
0.9293426837
0.9318555901
0.6639773024
0.7568570574
0.6125011059
0.6825411201
0.8825056258
0.8967492032
0.9341828652
0.6619505749
0.6378523937
0.6121513182
0.6914861320
0.6873076717
0.6996857441
0.6348065515
0.7327689972
0.7844680534
0.6644060175
0.8346744807
0.9173502239
0.6851823844
0.6351282923
0.9189515451
0.5928784155
0.8512357934
0.5569185995
0.9111351691
0.8076320154
0.9118960562
0.6553995407
0.6505974811
0.6696089056
0.8996000063
0.6720831513
0.5940039362
0.6363781278
0.9064435071
0.6315548741
0.5973893607
0.8878738783
0.5842189587
0.9119624409
0.6300264082
0.8650675595
0.6536916192
0.7129014144
0.7931771996
0.6428044951
0.7252316700
0.6511519816
0.9187150796
0.6046109300
0.8252754076
0.5671561060
0.9160522009
0.8394691115
0.9074699732
0.6480385984
0.6423957620
0.6727247060
0.9098161238
0.6709873531
0.5892494390
0.6786315882
0.8995973563
0.6031264356
0.6112567063
0.8719027088
0.5718360927
0.9130972339
0.8848455144
0.6701188359
0.7551630800
0.6316069226
0.7689923540
0.6563047551
0.9338308962
0.8735175050
0.9152551885
0.8504411916
0.7217313896
0.8050561880
0.8617714790
0.6827230826
0.9258675785
0.9086341598
0.9058567894
0.9258670686
0.9682623515
0.6556837183
0.8779855723
0.6909782977
0.6933241682
0.7397648662
0.6148337840
0.8708271283
0.6936010183
0.9105707777
0.9341009230
0.8186813151
0.9263706715
0.8779726531
0.9021450640
0.9230394806
0.6768103119
0.6135059438
0.9043935390
0.6057636286
0.6483654968
0.7249967963
0.9493203243
0.9396364095
0.7397248049
0.8537923203
0.9420742695
0.8644111113
0.9263933318
0.9450259875
0.6908375929
0.5925453349
0.7975098228
0.8229568900
0.9348567837
0.6874433937
0.9402099409
0.8921252342
0.9011001024
0.9207955515
0.8082640581
0.7032020848
0.7816781756
0.8858420539
0.6906796026
0.9288750635
0.9268348661
0.9137685662
0.9926259137
0.6707089356
0.8922843030
0.7375863061
0.6525814457
0.6526004440
0.8534228820
0.6914625077
0.9187411594
0.9318466209
0.8492395125
0.9162970101
0.8829533186
0.9228783872
0.6643660751
0.6458841196
0.7904083896
0.8869458928
0.6215363767
0.6148129788
0.9476103148
0.9344608649
0.7729416342
0.8241256079
0.9421674832
0.8346442564
0.9173350488
0.9493995591
0.6828287396
0.5946111943
0.7568265405
0.8453904507
0.6738030082
0.9174092925
0.9788049798
0.9611323097
0.9098375972
0.6388290340
0.6648231872
0.8492216881
0.6709850784
0.9552995165
0.7813919930
0.6986818035
0.5730873023
0.9676296829
0.6832948461
0.6505810707
0.6857063657
0.9162252897
0.6604122166
0.6457574894
0.9731834636
0.8895155505
0.6695349514
0.9510304399
0.9628850003
0.6351175784
0.6697934547
0.5842704833
0.5842706192
0.6109158660
0.6162764225
0.7852604489
0.9581973249
0.6276301721
0.5721324637
0.6728716445
0.6570273886
0.6129572270
1.0318159935
0.6619650108
0.6687140801
0.5856135303
0.6482600493
0.9402213801
0.6822685927
0.9180781814
0.9769424494
0.9583328561
0.9024059339
0.6712699093
0.8203451561
0.6727154556
0.9637567824
0.6537380324
0.5721510754
0.9651029307
0.6769780879
0.6423710633
0.6833997905
0.9111474719
0.6633016662
0.6612693067
0.9702439530
0.8720038938
0.6619556801
0.9632547307
0.9553900985
0.6446087455
0.6695978791
0.5892616740
0.6510621464
0.6284905192
0.5928806430
0.7441258465
0.9588928474
0.6428135567
0.6632836961
0.6480134935
0.6723737151
0.5885252612
0.9772940201
0.6669267112
0.6695440073
0.5952130009
0.9195438306
0.5358463539
0.6832785407
0.6457520138
0.9682568948
0.6728542534
0.9086085303
0.8569889832
0.5885237473
0.5414504106
0.7926371961
0.6538570556
0.6674515004
0.6044174888
0.9391176319
0.6304093310
0.7941938176
0.6426393075
0.5952459781
0.5884407305
0.7941776672
0.7844384343
0.8708229375
0.6719559219
0.9105758809
0.9293562244
1.0111313376
0.6347911493
0.9391078927
0.6409736631
0.6605411774
0.9338041280
0.8967616144
0.6163167776
0.6399286445
0.6563273918
0.6772491330
0.8617591234
0.8281315459
0.6975795850
0.4962188948
0.9254122926
0.5966246561
0.6546900327
0.9282701629
0.9465411549
0.7327644708
0.9021084548
0.9507436697
0.5845616023
0.6674885549
0.9020828925
0.9269591580
0.6737773872
0.5020517376
0.8572191068
0.6759860684
0.6856816864
0.9153097739
0.5104528539
0.6769678174
0.6612513341
0.7456415093
0.6632475749
0.8858218486
0.6975810825
0.8737769406
0.5856320452
0.5356208736
0.8152747224
0.6559283394
0.6603831769
0.6043129383
0.6468774170
0.6210542921
0.6109440479
0.5675398575
0.7311636200
0.8230953058
0.9209370135
0.6659732290
0.9353059742
0.9367413575
0.9420664947
0.6348369694
0.6705002806
0.9241087573
0.4862926253
0.6152935205
0.6727385834
0.8534161784
0.9507550470
0.7456121253
0.5914960766
0.5847936772
0.6646607015
0.9401837211
0.9479282122
0.5968912890
0.6469702067
0.9151876139
0.9450048120
0.6822405732
0.4941633295
0.8814233690
0.6765094034
0.6833776445
0.8921663161
0.6285016016