<VTKFile type="UnstructuredGrid" version="0.1">
	<UnstructuredGrid>
		<Piece NumberOfPoints="1862" NumberOfCells="3498">
			<CellData>
				<DataArray type="Int32" Name="type" NumberOfComponents="1" Format="ascii">
0
0
0
0
0
0
0
0
0
0
0
0
0
0
0
0
1
0
0
1
0
0
0
0
0
0
0
0
0
0
0
0
0
1
0
0
0
0
0
0
0
0
0
0
0
0
0
0
0
0
1
0
0
0
0
0
0
0
0
0
0
1
0
0
0
0
0
0
0
0
0
0
0
0
0
0
0
0
0
0
0
0
0
0
0
0
0
0
0
0
0
0
0
0
0
0
0
0
0
0
0
0
0
0
0
0
0
0
0
0
0
0
0
0
0
0
0
0
0
0
0
0
0
1
0
0
0
0
0
0
0
0
0
0
0
0
0
0
0
0
0
0
0
0
0
0
0
0
0
0
0
1
0
1
1
0
0
0
0
0
0
0
0
0
0
0
0
0
1
0
1
0
0
0
0
1
0
0
0
0
0
0
0
0
1
1
0
0
0
0
0
1
0
0
0
0
0
0
0
0
1
0
0
0
0
0
0
0
0
0
0
0
0
0
0
0
0
0
0
0
0
0
0
0
0
0
0
0
0
0
0
0
0
1
0
0
0
0
0
0
0
0
0
0
0
0
0
0
0
0
0
0
0
0
0
0
0
0
0
0
0
0
0
0
0
0
0
0
0
0
0
0
0
0
0
0
0
0
0
0
0
1
0
0
0
0
0
0
0
0
0
0
0
0
0
0
0
0
0
0
0
0
0
0
0
0
0
0
0
0
0
0
0
0
0
0
0
0
0
0
0
0
0
0
0
0
0
0
0
0
0
0
1
0
0
0
0
0
0
0
0
0
0
0
0
0
0
0
0
0
0
0
0
0
0
0
0
0
0
0
0
0
0
0
0
0
0
0
0
0
0
0
0
0
0
0
0
0
0
0
0
0
0
0
0
0
0
0
0
0
1
0
0
0
0
0
0
0
0
0
0
0
0
0
0
0
0
0
0
0
0
0
0
0
0
0
0
0
0
0
0
0
0
0
0
0
0
0
0
0
0
0
0
0
0
0
0
0
0
0
0
0
0
0
0
0
0
0
0
0
0
0
0
0
0
0
0
0
0
0
0
0
0
0
0
0
0
0
0
0
0
0
0
0
0
0
0
0
0
0
0
0
0
0
0
0
0
0
0
0
0
0
0
0
0
0
0
0
0
0
0
0
0
0
0
0
0
0
0
0
0
0
0
0
0
0
0
0
0
0
0
0
0
1
0
0
0
0
0
0
0
0
0
0
0
0
0
0
0
0
0
0
0
1
0
0
0
0
0
0
0
0
0
0
0
0
0
0
0
0
0
0
0
0
0
0
0
0
0
0
0
0
0
0
0
0
0
0
0
0
0
0
0
0
0
0
0
0
0
0
0
0
0
0
0
0
0
1
0
0
0
0
0
0
0
0
0
0
0
0
0
0
0
0
0
0
0
0
0
0
0
1
0
0
0
0
0
0
0
0
0
0
0
0
0
0
0
0
0
0
0
1
0
0
0
1
0
0
0
0
0
0
0
0
0
0
0
0
0
0
0
0
0
0
0
0
0
0
0
0
0
1
0
0
0
0
0
0
0
1
0
0
0
0
0
0
0
0
0
0
0
0
0
0
0
0
0
0
0
0
0
0
0
0
0
0
1
0
0
0
0
0
0
0
1
0
0
0
0
0
0
1
0
0
0
0
0
0
0
0
0
0
0
0
0
0
0
0
0
0
0
0
0
0
0
0
0
0
0
0
0
0
0
0
0
0
0
0
0
0
1
0
0
0
0
0
1
0
0
0
0
0
0
0
1
0
0
0
0
0
0
0
0
0
0
0
0
0
1
0
0
0
0
0
0
0
0
0
0
0
0
0
0
0
0
0
0
0
0
0
0
0
0
0
0
0
0
0
0
0
0
0
0
0
0
0
0
0
0
0
0
0
0
0
0
0
0
0
0
0
0
0
1
0
0
0
0
0
0
0
0
0
0
0
0
0
0
0
0
0
0
0
1
0
0
0
0
0
0
0
0
0
1
0
0
0
0
0
0
0
0
0
0
0
0
0
0
0
0
0
0
0
0
0
0
0
0
0
0
0
0
0
1
0
1
0
0
0
0
0
0
0
0
0
0
0
0
0
0
0
0
0
0
0
0
0
0
0
0
0
0
0
1
0
0
0
1
0
0
0
0
0
0
0
0
0
0
0
0
0
0
0
0
0
0
0
0
0
0
0
0
0
0
0
0
1
0
0
0
0
0
0
0
0
0
0
0
0
0
0
0
0
0
0
0
0
0
0
0
0
0
1
0
0
0
0
0
0
0
0
0
0
0
0
0
0
0
0
0
0
0
0
0
0
0
1
0
0
0
0
0
0
1
0
0
0
0
0
0
0
0
0
0
0
1
0
0
0
0
0
0
0
0
0
0
0
0
0
0
0
0
0
0
0
0
1
0
0
0
0
0
0
0
0
0
0
0
1
0
0
0
0
0
0
0
0
0
0
0
0
0
0
0
0
0
0
0
0
0
1
0
0
0
0
0
0
0
0
0
1
1
0
1
0
1
0
0
0
0
0
0
0
0
0
0
0
1
0
0
0
0
0
1
1
0
0
0
0
0
0
1
0
0
0
0
0
1
1
1
0
0
0
0
0
0
0
0
0
0
0
0
1
1
0
0
1
0
0
0
0
0
1
0
0
0
1
0
1
0
0
0
0
0
0
0
1
0
0
0
0
0
0
0
1
0
0
1
0
0
0
0
0
0
0
0
0
0
0
0
0
0
0
1
0
0
0
0
0
0
0
0
0
0
0
0
0
0
0
0
0
0
0
0
0
0
0
0
0
0
0
0
0
0
0
0
0
0
0
0
1
0
0
0
0
0
0
1
0
0
0
1
0
0
0
0
0
0
0
0
0
0
0
1
0
0
0
0
0
0
0
0
0
0
0
0
0
0
0
0
0
0
0
0
0
0
0
0
0
0
0
0
0
0
0
0
0
0
0
0
0
0
0
0
1
1
0
0
0
0
0
0
0
0
0
0
0
0
0
1
0
0
0
0
0
0
0
0
0
0
0
0
0
0
0
0
0
0
0
0
0
0
0
0
0
0
0
0
0
0
0
0
0
0
0
0
0
0
0
0
0
0
0
0
0
0
0
0
0
0
0
0
0
0
0
0
0
0
0
0
0
0
0
0
0
0
0
0
0
0
0
0
1
1
0
0
0
0
0
0
0
0
1
0
0
0
0
0
0
0
0
0
0
0
0
0
0
0
0
0
0
0
0
0
0
0
1
0
0
0
0
0
0
0
0
0
0
0
0
0
0
0
0
1
0
0
0
0
0
0
0
0
0
0
0
0
0
0
0
0
0
0
0
0
0
0
0
0
0
0
0
0
0
0
0
0
0
0
0
0
0
0
0
0
0
0
0
0
0
0
0
0
0
0
0
0
0
0
0
0
0
0
0
0
0
0
0
0
0
0
0
0
0
0
0
0
0
0
0
0
0
0
0
0
0
0
0
0
0
0
0
0
0
0
1
1
0
0
0
0
0
1
0
0
0
0
0
0
0
0
0
0
0
0
1
0
0
0
0
0
0
0
0
0
0
0
0
0
0
0
0
0
0
0
0
0
0
0
0
0
0
0
0
0
0
0
0
0
0
0
0
0
0
0
0
0
0
0
0
0
0
0
0
0
0
0
0
0
1
0
1
0
0
0
0
0
0
0
0
0
0
0
0
0
0
0
0
0
0
1
0
0
0
0
0
0
0
0
0
0
0
0
0
0
0
0
0
0
0
0
0
0
0
0
0
0
0
0
0
0
0
0
0
0
0
0
0
0
0
0
0
0
0
0
0
0
0
0
0
0
0
0
0
0
0
0
0
0
0
0
0
0
0
0
0
0
0
0
0
0
1
0
0
0
0
0
0
0
0
0
0
1
0
0
0
0
0
0
0
0
0
0
0
0
0
0
0
0
0
0
0
0
0
0
0
0
0
0
0
0
0
0
0
0
0
0
0
0
0
1
0
0
0
0
0
0
0
0
0
0
0
0
0
0
0
0
0
0
0
0
0
0
0
0
0
0
0
0
0
0
0
0
0
0
0
0
0
0
0
0
0
0
0
0
0
0
0
0
0
0
0
0
0
0
0
0
0
0
0
0
0
0
0
0
0
0
0
0
0
0
0
0
0
0
0
0
0
0
0
0
0
1
0
0
0
0
0
0
0
0
0
0
0
0
0
0
0
0
0
0
0
0
0
0
0
0
0
0
0
0
0
0
0
0
0
0
0
0
0
0
0
0
0
0
0
0
0
0
0
0
0
0
0
0
0
0
0
0
0
0
0
0
0
0
0
0
0
0
0
0
0
0
0
0
0
0
0
0
0
0
0
0
0
0
0
0
0
0
0
0
0
0
0
0
0
0
0
0
0
0
0
0
0
0
0
0
0
0
0
0
0
0
0
0
0
0
0
0
0
0
0
0
0
0
0
1
0
0
0
0
0
0
0
0
0
0
0
0
0
0
0
0
0
0
0
0
0
0
0
0
0
0
0
0
0
0
0
0
0
0
0
0
0
0
0
0
0
0
0
0
0
0
0
0
0
0
0
0
0
0
0
0
0
0
0
0
0
0
0
0
0
0
0
0
0
0
0
0
0
0
0
0
0
0
0
0
0
1
0
0
0
0
0
0
0
1
0
0
0
0
0
0
0
0
0
0
0
0
0
0
0
0
0
0
0
0
0
0
0
0
0
0
0
0
0
0
0
0
0
0
0
0
0
1
0
0
0
0
0
0
0
0
0
0
0
0
0
0
0
0
0
0
0
0
0
1
0
0
0
0
0
0
0
0
0
0
0
0
1
1
0
0
0
0
0
0
0
0
0
0
0
0
0
0
0
1
1
0
1
0
0
0
0
0
0
0
0
0
1
0
0
0
0
0
0
1
0
0
0
0
0
0
0
0
0
0
1
0
0
0
0
1
0
1
0
0
0
0
0
0
0
1
0
0
0
1
0
0
0
1
0
1
1
0
0
1
1
0
0
0
1
0
0
0
1
0
0
0
0
0
0
0
0
0
1
0
0
0
0
0
0
1
0
0
0
0
0
0
0
0
0
0
0
0
0
0
0
0
0
0
0
0
0
0
0
0
0
0
0
1
0
0
1
0
0
0
0
0
0
0
0
0
0
0
0
0
0
0
0
0
0
1
0
0
1
0
0
0
0
0
0
0
0
0
0
0
1
0
0
1
0
0
0
0
0
0
0
0
0
0
0
1
1
0
0
0
0
0
0
0
0
0
0
0
0
1
0
0
0
0
0
0
0
0
0
0
0
0
0
0
0
0
0
1
0
0
0
0
0
0
0
0
0
0
0
0
0
0
0
0
0
1
0
0
0
0
0
0
0
0
0
0
0
0
0
0
0
0
0
0
0
0
0
0
0
0
0
0
0
0
0
0
0
0
0
0
0
0
0
0
0
0
1
0
0
0
0
0
0
0
0
0
0
0
0
0
0
0
0
0
0
0
0
0
0
0
0
0
0
0
0
0
0
0
0
0
0
0
0
0
0
0
0
0
0
0
0
0
1
0
0
0
0
0
0
0
0
0
0
0
0
0
0
0
0
0
0
0
0
0
0
0
0
0
0
0
0
0
0
0
0
0
0
0
0
0
0
0
0
0
0
0
0
0
0
0
1
0
0
0
0
0
0
0
0
0
0
1
0
0
0
0
0
0
0
0
0
0
0
0
0
0
0
1
0
0
1
0
0
0
0
0
0
0
0
0
0
0
0
0
0
0
0
0
0
0
0
0
0
0
1
0
0
0
0
0
0
0
0
0
0
0
0
0
0
0
0
0
0
0
0
0
0
0
0
0
0
0
0
0
0
0
0
0
0
0
1
0
0
0
0
0
0
0
0
0
0
0
0
0
0
0
0
0
0
0
0
0
0
0
0
0
0
0
0
0
0
0
0
0
0
0
0
0
0
0
0
0
0
0
0
0
0
0
0
0
0
0
0
0
0
0
0
0
0
0
0
0
0
0
0
0
0
0
0
0
0
0
0
0
0
0
0
1
0
0
0
0
0
0
0
0
0
0
0
0
0
0
0
0
0
0
0
0
0
0
0
0
0
0
0
0
0
0
0
0
0
0
0
0
0
0
0
1
0
0
0
0
0
0
0
0
0
0
0
0
1
1
0
0
0
0
0
0
0
0
0
0
0
0
0
0
0
0
0
0
0
0
0
0
0
0
0
0
0
0
0
0
0
0
0
0
0
0
0
0
0
0
0
0
0
0
0
0
0
0
0
0
0
0
0
0
0
0
0
0
0
0
0
0
0
0
0
0
0
0
0
0
0
0
0
0
0
0
0
0
0
0
0
0
0
0
0
0
0
0
0
0
0
0
0
0
0
0
0
0
0
0
0
1
0
1
0
0
0
0
0
0
0
1
1
1
1
0
0
0
0
0
0
0
0
0
0
0
0
0
0
0
0
0
0
0
0
0
0
0
0
0
0
0
0
1
1
0
0
0
0
0
0
0
0
0
0
0
0
0
0
0
0
0
0
1
0
0
0
0
0
0
0
1
1
0
1
1
0
0
1
0
0
0
0
0
0
0
1
0
1
0
0
0
0
0
0
0
0
0
0
0
0
0
0
0
0
0
0
0
0
0
0
0
0
0
0
0
1
1
0
0
0
1
1
0
0
0
0
1
0
0
1
0
1
0
0
0
0
0
1
0
0
0
1
0
0
0
0
0
0
0
0
0
0
0
0
0
0
0
0
0
0
0
0
0
0
0
0
0
0
0
1
0
0
0
0
0
0
1
0
0
0
0
0
0
0
0
0
0
0
0
0
0
0
0
0
0
0
0
0
0
0
0
0
0
0
0
0
1
0
1
0
0
0
0
0
0
0
1
0
0
0
0
0
0
0
0
0
0
0
1
0
0
0
0
0
0
0
0
0
1
0
0
0
0
0
0
0
1
0
0
0
0
0
0
0
1
0
0
0
0
0
0
0
0
0
0
0
0
0
0
0
0
0
0
0
1
0
1
0
0
0
0
0
1
0
0
0
0
0
0
0
0
0
0
0
0
0
0
0
0
0
0
0
0
0
0
0
0
0
1
0
1
0
0
0
0
0
0
0
0
0
1
0
0
0
0
0
1
0
0
0
0
0
0
0
0
0
0
0
0
0
0
0
1
0
0
0
0
0
0
0
0
1
0
0
0
0
0
0
0
0
0
0
0
0
0
0
0
0
0
0
0
0
0
0
0
0
0
0
0
0
0
0
1
0
0
0
0
0
0
0
0
0
0
0
0
0
0
0
0
1
0
0
0
0
0
0
0
0
1
0
0
0
0
0
0
0
0
0
1
0
0
0
0
0
1
0
0
0
0
0
0
0
0
0
0
0
0
0
0
0
0
0
0
0
1
0
0
0
0
0
0
1
0
0
0
0
0
0
0
0
1
0
0
0
0
0
0
0
0
0
0
0
0
0
0
1
0
0
1
0
0
0
1
0
0
0
0
0
0
0
0
0
0
0
0
0
0
0
0
1
0
0
0
0
0
0
0
0
0
0
1
0
1
0
0
0
0
0
0
1
0
0
0
0
0
0
0
0
0
0
0
0
0
0
0
0
0
0
0
0
0
0
0
0
0
0
0
1
1
0
0
0
0
0
0
1
0
0
0
0
0
0
0
0
0
0
0
0
0
1
0
0
0
0
0
0
0
1
0
0
0
0
0
0
0
0
0
0
0
0
0
0
0
0
0
0
0
0
0
0
0
0
0
0
0
1
0
0
0
0
0
0
0
0
0
0
1
0
0
1
0
0
0
0
0
0
0
0
0
0
0
0
0
0
0
0
0
0
0
0
0
0
0
0
0
0
0
0
0
1
0
0
0
0
0
0
0
1
0
0
0
0
0
0
0
1
0
0
0
0
1
0
0
0
0
0
0
0
0
0
0
0
1
0
1
0
0
0
1
0
				</DataArray>
				<DataArray type="Float64" Name="h" NumberOfComponents="1" Format="ascii">
0.9796349467
0.9797391380
0.9500215458
0.9754197869
0.9460282984
0.9558068276
0.9654319912
0.9867198540
0.9728243861
1.0003107968
0.9829869149
0.9598964281
0.9854144928
0.9918122016
0.9861756004
0.9878183072
0.9671373118
0.9969041315
0.9777531179
0.9856916744
0.9342611394
0.9787415025
0.9581249749
0.9320536748
0.9758650853
0.9937713605
0.9581134937
0.8770008556
0.9416497209
0.9970070595
0.9923990585
0.9576310569
0.9752477798
0.9453463937
0.8926817058
0.9217366033
0.9103969110
0.9463011674
0.8733934512
0.9276665479
0.9390213160
0.8809685668
0.9605329609
0.9289505390
0.9187519136
0.8940779535
0.9464800878
0.8837075962
0.8450366772
0.8347241122
0.9245204889
0.9098739270
0.9273021868
0.8486795380
0.8934813951
0.9476946020
0.8943672920
0.8729993555
0.8674585175
0.8602546062
0.8695716375
0.8717194488
0.8504356879
0.9079904776
0.9115007709
0.8500824199
0.8230697347
0.8408434605
0.8688345367
0.8715994610
0.8669661881
0.8924212206
0.9334953026
0.8486819295
0.8594118534
0.8401456527
0.8726444329
0.8643212142
0.8780188609
0.8539734725
0.8684307831
0.8428284795
0.8519473926
0.8296343666
0.8708703266
0.8285924937
0.8675858347
0.8163879588
0.8578193807
0.8465270860
0.8644736654
0.8408409264
0.8654747140
0.8375485312
0.8246243920
0.8321346747
0.8083129352
0.8686649306
0.8568182718
0.8673366353
0.8508035362
0.8691463337
0.8272676757
0.8776920728
1.0077729290
0.8111105380
0.8066231165
0.8488605468
0.8637359502
0.8300646008
0.8330437686
0.8434448028
0.8619944507
0.8588317126
0.8345201482
0.8663520255
0.8336513189
1.0074655851
0.8604342538
0.8435950840
1.0087957916
0.8157803101
0.8131718455
1.0211694677
0.8558313171
0.8531700074
0.8411590746
1.0219498896
0.8686518375
0.8636531292
0.8660266305
0.8118302823
0.8489636295
0.8706660334
1.0081296811
0.8648602249
0.9961168265
0.8679895014
0.8701486478
0.9773540275
1.0205460681
1.0160342372
0.8659691496
0.9637362565
0.8154135679
0.8678406695
0.9864855904
0.8617012102
1.0166756455
0.8617267824
0.9989773075
0.8690865434
0.8671597139
0.8660610767
0.8707008641
0.8650945719
0.8673687051
1.0125756966
0.8632527220
1.0269928930
0.9711796404
0.8643512513
0.9908725612
1.0208880500
1.0164430528
0.8603878779
0.9446605041
0.9831294106
1.0278951142
0.8636491477
0.8680158588
1.0306019557
0.8660548761
1.0108384156
0.9344593014
0.8652310030
0.9554036980
0.8553287884
0.8652064017
1.0186116756
0.8639734465
0.9059369354
1.0248242341
0.8009102579
1.0327825482
1.0341607115
0.9209753344
0.8637826246
1.0289456868
1.0329270368
0.8742096195
0.8651291737
1.0294176873
0.8905028687
0.8651603091
0.8568788867
1.0110002880
0.8433472877
0.8578627313
0.8569524044
1.0340726313
0.7915941670
1.0335091618
0.8624072791
0.8140113326
1.0151341940
0.9779624614
0.9951557263
0.8270548944
0.9511753893
0.8769878241
1.0310299778
1.0132297897
1.0161734014
0.9870393372
0.8457483817
0.9663177847
1.0092558440
0.9061121433
1.0230017430
0.8005948057
0.8315632581
0.9315714801
0.8060586916
0.7819396278
0.8531352540
0.8476234398
0.7858998507
0.7901008320
0.8413420164
0.8584101076
0.8191879722
0.7809807832
0.8544120898
0.8522947433
0.7942185200
0.8621083316
0.9671836306
1.0235296790
0.9386222703
0.8649725804
0.9858230248
1.0062902121
0.9413684746
0.9903774704
0.9722298824
1.0107787546
0.8924010770
0.9774197724
1.0002311296
0.9544808408
0.8934309750
1.0045456726
0.8315339617
0.8359970109
1.0075569092
0.9581072863
0.9823326624
1.0161772485
0.8109782042
0.9183403856
0.7729978344
0.7723605766
0.7914047771
0.7761635944
0.8494590776
0.8467635243
0.7916856820
0.8509043713
0.8182881836
0.8385710918
0.9195061876
0.8354671882
0.7860543476
0.7975500149
0.7826303411
0.7694644040
0.7800170923
0.8047871679
0.7803190332
0.8432483102
0.8480716942
0.8492321395
0.8457899406
0.8300633857
0.8242660779
0.7787739121
0.9561659932
1.0016048776
0.9967606630
0.9596448793
0.8516064981
0.9759219409
0.9808869206
0.9264512672
0.8549142872
0.9281462371
0.9670061823
0.9905734865
1.0075606847
0.9980884809
0.9709529130
0.8803153975
0.8280255974
0.8234142889
0.9429114074
0.8821973156
0.9457022096
0.9951192589
0.7682977188
0.7729932191
0.7635521525
0.8438803058
0.7863659806
0.8285362734
0.7962046138
0.9061881815
0.8230930675
0.8400768971
0.9063025511
0.7792585273
0.7670967705
0.8053591252
0.8419691305
0.7631317140
0.7670539509
0.7693700348
0.8424378827
0.7831394771
0.8101973483
0.8330789787
0.8384239105
0.8408834924
0.7799271854
0.7918143168
0.7734695777
0.8181535595
0.9481824743
0.8205519565
0.9155553432
0.8476770708
0.9159961951
0.9918656250
0.8436870090
0.9658400586
0.9456401206
0.9695939985
0.9869215297
0.8090973979
0.7721124882
0.8236359183
0.7753138944
0.9599730409
0.9854209927
0.8151317053
0.9321060698
0.7740144074
0.8723802374
0.9337266905
0.7877476845
0.7918905388
0.8139123584
0.9980930413
0.8700825348
0.8177259569
0.9567323594
0.7928435398
0.7811979685
0.7667895894
0.9882596793
0.7758384692
0.8013115968
0.9804111252
0.8328503220
0.7839214419
0.7713535484
0.8341372270
0.9500083500
0.8185051961
0.7680337936
0.7851593819
0.8107425349
0.8362725490
0.8950613822
0.7947871028
0.8945115811
0.7629666420
0.7641462704
0.7598817945
0.8965791738
0.8333723871
0.7803372563
0.7723511202
0.8199211099
0.8308352056
0.7822664948
0.9430738685
0.9276154415
0.9191571515
0.8506544915
0.7609622610
0.8222682454
0.8669231459
0.7973374901
0.8346566418
0.8350756404
0.8073720721
0.7713087063
0.7606359254
0.8824206399
0.7635304331
0.7809400586
0.7831330050
0.7783915894
0.9375731283
0.8147954925
0.8045891594
0.9054437338
0.7830607614
0.7667657041
0.7964363569
0.8073072429
0.9593680821
0.8007412379
0.8139722290
0.7661415202
0.8207102302
0.9819991129
0.7939833753
0.8374442572
0.7674642778
0.8164750128
0.7805040847
0.8080184757
0.7734467121
0.7696578671
0.8109171577
0.7937012845
0.8196143342
0.7994549834
0.7839788952
0.7907676124
0.9495374486
0.7995438838
0.7905852728
0.9229798399
0.7621028441
0.7869159980
0.7734402771
0.7990048934
0.7876214273
0.8216131030
0.9882654191
0.7760165581
0.8613430370
0.8073101506
0.8153252293
0.8102626808
0.7806809713
0.8173148848
0.9753673316
0.8151621639
0.9278526384
0.8286364107
0.8840765289
0.7758621523
0.7619993618
0.7633921261
0.8392307731
0.9494193575
0.8263950431
0.8966243121
0.8003964512
0.8559180005
0.7860362603
0.7607742766
0.8230807652
0.8853413035
0.9721704252
0.9455467602
0.9405155199
0.8148787351
0.9396934104
0.8272417138
0.8254601466
0.8215454906
0.8121840016
0.9345420944
0.7668114204
0.9226512190
0.7917343420
0.7725163081
0.8270038166
0.9646387064
0.9430827275
0.9088568289
0.9136173972
0.8302322190
0.7877862987
0.9344620944
0.8084958046
0.8135046200
0.8985181004
0.9191660661
0.8506539765
0.8770507106
0.7592459034
0.9784550384
0.7987339870
0.7941075202
0.9345302276
0.8345753166
0.7972652975
0.8966267641
0.8015737113
0.9721803985
0.7953639274
0.7901162985
0.9670527299
0.8984928225
0.8345788177
0.7811144127
0.7885538681
0.8158955470
0.9275740038
0.8059712331
0.9328030370
0.7880598470
0.8115174631
0.8402422076
0.7930704548
0.9278561535
0.7832888632
0.9474499852
0.9494241538
0.8509051177
0.9646472954
0.9136200819
0.9784616649
0.8115186779
0.8148832031
0.8654859559
0.9115578710
0.9733200267
0.8918184225
0.9143731214
0.9373598112
0.8559206743
0.8792728644
0.9188484582
0.8183316803
0.9024899034
0.9386276760
0.8223863836
0.9611522992
0.8102794364
0.8213191835
0.9245924570
0.8050327602
0.8138326478
0.8603765667
0.9294375822
0.8102820409
0.9396975705
0.8362865665
0.7937529436
0.8770534640
0.7620092491
0.7976162911
0.8216735058
0.8802098728
0.7913481054
0.8081769701
0.7936272394
0.7667707143
0.9582893467
0.7891334405
0.7954276377
0.7972698788
0.8574130063
0.9076690096
0.7734720227
0.8085005631
0.9287151875
0.7933555659
0.9397500538
0.8196069147
0.7831702141
0.7621084594
0.9182234052
0.8207725819
0.8545429288
0.9098526955
0.8366159994
0.9139646996
0.7760220567
0.8391859567
0.9639664003
0.8279851910
0.8706674351
0.8244847529
0.8756161312
0.8234184754
0.9204213766
0.7661615097
0.9073992529
0.8777989425
0.8237710002
0.8046283903
0.9210994280
0.8892638826
0.9467706027
0.8194963658
0.9215401517
0.7954277642
0.9309806016
0.7996786452
0.9474578075
0.8802108060
0.8402438208
0.9275777780
0.8168579463
0.8009423384
0.9527339246
0.9670620294
0.8926024220
0.9199994507
0.8365123889
0.9611628060
0.9107321448
0.8778009260
0.9181392682
0.9049177901
0.8213214952
0.8984939397
0.8603774896
0.9386337384
0.8243222647
0.8398092338
0.8134312990
0.7950405885
0.9733262511
0.8886388131
0.8649351465
0.8511245086
0.8260389481
0.8140632193
0.8223866400
0.8991523188
0.8269760515
0.9178676058
0.9007811597
0.9532436751
0.9337380711
0.9165618492
0.8688540031
0.8337755640
0.9143750717
0.8167476361
0.9138618852
0.9596531643
0.9411415849
0.8061807823
0.8308984823
0.8416211698
0.8088357120
0.9189432267
0.8855909376
0.9475296018
0.9248008893
0.8368715870
0.8400073008
0.8509054894
0.8976329258
0.8651434148
0.9152112755
0.8267693713
0.9151260328
0.9113944847
0.8523481900
0.8488159054
0.8833474538
0.8937937197
0.8342897544
0.9015391687
0.9058591712
0.9169260883
0.8427000833
0.8497449046
0.8474959347
0.9098320066
0.9160029933
0.9184674480
0.9191485611
0.9165067989
0.8414879099
0.8486993878
0.8200828645
0.8310162291
0.9180822695
0.8537407950
0.8549363669
0.9208955831
0.8398011068
0.8320273171
0.9211094953
0.8574427171
0.9024942035
0.8466999584
0.9241010750
0.9188113960
0.8585713213
0.9215477437
0.8543566536
0.8467960002
0.9294456504
0.8411918200
0.9291650443
0.9283257854
0.8372856191
0.8346128383
0.9411224715
0.9679478631
0.9655227053
0.9656386008
0.9680775354
0.9685613148
0.9598678693
0.9829481421
0.9829961896
0.9509631354
0.9557537346
0.9460971097
0.9510557489
0.9728851746
0.9861225776
0.9653682260
0.9970957335
0.9830487076
0.9686043987
0.9908532765
0.9968861261
0.9754555935
0.9500641771
0.9776458055
0.9969845195
0.9913366703
0.9563364591
0.9867706166
0.9937447669
0.9758403497
1.0003326055
0.9849135340
0.9854885642
0.9405330745
0.9821103200
0.9707854063
0.9971208538
0.9923815950
0.9909085610
0.9453384767
0.9751786379
0.9574154600
0.9679461492
0.9276278555
0.8832982133
0.9671465662
0.9878662576
0.9603520797
0.8731778751
0.9563564255
0.9913806331
0.9388884580
0.9918363707
0.9857019629
0.9405637040
0.9583441184
0.8791474387
0.9788246811
0.9163304196
0.9849967466
0.9342789042
0.9709462478
0.9695261804
0.8646548324
0.8836948341
0.9821520246
0.9186923234
0.9245083023
0.9461924571
0.8771785284
0.9321056065
0.9418191238
0.8942126338
0.8989379548
0.9582642179
0.8998155186
0.9970840507
0.8835465073
0.8814707779
0.8901182087
0.9680259372
0.9270694035
0.8791519780
0.8391885731
0.8466172922
0.9696736796
0.9163567462
0.9033937687
0.8647181586
0.9218217824
0.9112063365
0.9465664717
0.8810121102
0.8926992560
0.8504714461
0.8408569110
0.8671975364
0.9104135684
0.9079090820
0.8814808484
0.8738778638
0.8683055875
0.9292235230
0.8487048595
0.8578972706
0.8924010255
0.9332615723
0.8724922469
0.9028331856
0.9123039314
0.8998376099
0.8693173265
0.8901355261
0.8810174461
0.8726365171
0.8669654142
0.8523319765
0.8594114408
0.8992170284
0.9334029964
0.8688283875
0.9019539828
0.9971059611
0.8715874052
0.9034268296
0.8810168211
0.8461637544
0.8672444721
0.8370677351
0.8734006362
0.8275882755
0.8449926392
0.9099994798
0.8465973770
0.8942868251
0.8427710201
0.8296490663
0.8591615754
0.8391659192
0.8346991191
0.8695720767
0.8717257053
0.9336880721
0.8676121909
0.8523128684
0.8674556412
0.8682406728
0.8578701599
0.8560843835
0.9204776597
0.8738826851
0.9019716237
0.8725001498
0.8935163702
0.8688361241
0.8724985989
0.8693235911
0.9478609526
0.8472413187
0.8608150683
0.9030315236
0.8486268219
0.8683003499
0.8602405007
0.8407009177
0.8730096069
0.9125980943
0.8654845113
0.8370312755
0.8776752198
0.8566700125
0.8591647007
0.8879594977
0.8733881701
0.8691510932
0.8164658447
0.8656903772
0.8268100723
0.8501482686
0.8508784543
0.8230550917
0.8844189853
0.8684461775
0.8703684248
0.8320751023
0.8619077274
0.8275927781
0.8673521550
0.8110950448
0.8462508021
0.8550306701
0.8472410475
0.8637567933
0.8435051011
0.8676123377
0.8608034049
0.8620066120
0.8724907187
0.8402848849
0.8258380463
0.8682284749
0.8643103864
0.9206809072
0.8646408954
0.8562446670
0.8330638208
0.8299814724
0.8688361150
0.8656824111
0.8549611394
0.8441300141
0.8703649540
0.8286821427
0.8157575075
0.8547584127
0.8844358557
1.0046386897
0.8618922274
0.8267778465
0.8710354396
0.8541571628
0.8675741681
0.8518643423
0.8684208415
0.8336933375
0.8780287933
0.8164937347
1.0087945199
0.8163966804
0.8881298755
0.8646204900
0.8118039952
0.8209160335
1.0009747080
0.8532274830
0.8598232683
0.8605962698
0.8577897339
0.8246851720
0.8375129541
0.8615835206
0.8464522487
0.8644511327
0.8579250401
0.8754820598
0.8558516035
0.8411969759
0.8258681343
0.8636909546
0.8273179110
0.8580257914
0.8132227970
0.8440607333
1.0046377491
0.8547339560
0.8542251019
1.0081224425
0.8648943314
0.8489917362
1.0077739620
0.8083470261
0.8153227164
0.8091111616
1.0160300181
0.8521095310
1.0009860634
0.8615410901
0.8587978465
0.8488018814
0.9966649025
0.8754944379
0.8605726166
0.8344821882
1.0166751997
0.8209396330
0.8660018585
1.0237167919
0.8663144640
0.8598032654
0.8678712447
0.8578821471
0.8066860184
1.0149131434
0.8262916441
0.8011685327
0.8691977502
0.8579782422
0.8541890326
1.0037507593
0.8683048984
0.8555640342
0.8693458358
0.8435639419
0.8133111642
0.8691154682
1.0074694515
0.8684782831
0.8603972472
1.0049293071
0.9989823385
0.8671875607
0.8707153772
0.9966838347
1.0237189582
0.9831346386
1.0164452678
0.8520946420
0.8640059079
1.0149145131
1.0225868834
0.8599926584
0.8011329119
0.8091690324
1.0211725534
0.8686229542
0.9711580337
1.0150657835
0.8132668234
0.8659958574
1.0057101327
0.9908842062
0.8691455368
0.8643824573
1.0219492952
0.8632789049
0.8693240644
0.9961177868
0.8706355770
0.8666841429
0.7950734072
0.8554999561
0.8671046135
0.8679585054
0.8660801914
1.0007586174
1.0070813566
0.8701312552
1.0049379338
0.8012675360
1.0037504610
0.8691692920
0.8263964715
0.8684530778
0.8636811030
0.8705910674
0.8682752261
0.8680421341
1.0108390971
0.8617006982
1.0248244155
0.7976368750
1.0150656054
1.0225851327
0.8587856566
0.8653827185
0.8648637210
0.9637993693
0.8616674560
0.9864892488
1.0186151526
0.8599649910
1.0057185704
0.8012000929
1.0209384058
1.0205426193
0.8640141173
0.8691168533
0.9553335659
0.8711213148
0.9773753236
0.8639767328
1.0251690557
1.0289443525
0.8650570065
0.8673432478
1.0070805466
0.7899895477
0.8666568583
1.0124082081
1.0007645537
0.7951478177
1.0327808230
0.8670676677
0.8660340552
1.0125700890
0.8705657112
0.9208764074
0.7954760752
0.8651876990
0.9447845372
1.0251680099
0.8587302670
0.8569257314
1.0209356289
0.8648390211
0.8710985615
0.8597753655
1.0300742805
0.8653557877
0.7976991529
1.0262985012
0.8651533647
0.8707424418
1.0208836005
0.8603405534
0.8902234409
0.8576053487
1.0269926435
0.7915104924
0.8631668155
1.0306033720
1.0335076954
0.9345607913
0.8624302632
0.7900706533
1.0278975890
1.0340714814
1.0124120454
0.8577208180
0.8618029715
0.8651814186
1.0144580995
1.0300754024
1.0262977430
1.0310281961
0.8575791147
0.8597345043
1.0175561574
0.8547636866
0.9060559565
0.8707143905
0.8652037321
0.7955641338
1.0292271107
1.0315969404
0.8552947110
1.0132322637
0.8269614684
0.8744018926
0.8584280747
0.8631405944
1.0329285909
0.8617758893
0.8601033738
0.8595193852
0.8009936698
1.0341621468
0.8637581130
0.8005316914
1.0107776508
0.9722350612
1.0069914861
0.9903896813
0.8434424382
1.0315994203
0.8162463028
1.0260498254
0.9413174848
1.0027666714
1.0144535378
0.8620447922
1.0294199982
1.0266162670
0.8547043140
1.0109979609
1.0198964228
0.9823478161
0.9980979717
0.8314902620
0.9580869393
1.0045436141
0.8922924202
1.0292302393
1.0235256712
1.0175543339
0.8552031814
0.8041310086
0.8140715992
0.8600795231
0.8242366566
0.9194507639
0.8594944310
0.7974019314
0.7802571332
0.8492510179
0.8433239040
0.8509104893
0.7786609873
0.7916427564
0.8355101734
0.8569292487
0.8108636342
0.7760835860
0.8509206155
0.8474765291
0.8494979447
0.7858994346
0.8770825330
0.9596476230
0.9935897773
1.0230039097
0.9281140180
0.8515744454
1.0027676115
0.8162939647
1.0069921530
1.0190610955
0.8082319534
0.9808992318
1.0016005348
1.0260514368
0.9512219301
0.9951507794
0.9779533184
1.0151357919
0.9061671813
0.9709645841
0.9951143234
1.0266203530
0.9456881432
0.8802747846
1.0092556484
0.8458201092
0.8233876565
0.9886834376
1.0117723711
0.9663310491
0.9980976396
0.9870260561
1.0199010423
0.8192334556
0.9062603588
0.7986180442
0.7734262158
0.7669772171
0.7829717304
0.7810884197
0.8474081238
0.8522645361
0.8424495608
0.7901596575
0.8543932107
0.8434622894
0.8100959833
0.8331084400
0.9316501189
0.8551835115
0.8412750109
0.7943332706
0.8061618530
0.7863382776
0.7670441044
0.7728664277
0.7960449098
0.7820251542
0.8475427650
0.8508513601
0.8438891161
0.8041653162
0.8531248295
0.8419995395
0.8230759876
0.8392193285
0.8315404657
0.7860194454
0.9481830078
0.9835594126
1.0062928059
1.0190615092
0.9918580366
0.9671780440
0.8650263648
0.8043557957
0.9696020863
0.8082651761
0.9858139726
0.9159783620
0.8436690855
0.9386507401
0.9935902956
0.9599794600
0.9854156405
1.0117764777
1.0026400736
0.9774083066
0.8934945179
0.8177091191
0.9787419606
0.8360373164
0.9886797778
0.9337171246
0.8700624133
0.9544894684
1.0002350690
0.7712830907
0.7801837006
0.7605931536
0.8480622655
0.7826637572
0.8222468827
0.8049065167
0.8944904990
0.8300439529
0.8391778972
0.8351522806
0.8350704629
0.7958598166
0.9183861824
0.7722215574
0.7695476714
0.7972112410
0.8457617206
0.7629355205
0.7724723314
0.7640766290
0.8467561160
0.7986397341
0.8302711665
0.7915533605
0.8183338047
0.8385187314
0.8341641297
0.8362682037
0.7851457770
0.7837658197
0.7730553652
0.8106766511
0.8434114811
0.8147636206
0.7674627523
0.8026056958
0.7830436089
0.9561619393
0.9835592278
0.8160626267
0.8104444713
0.9054359933
0.7742302670
0.8374350567
0.9264673765
0.7806518584
0.8007111218
0.8171835049
0.9967657919
0.8549430637
0.8043777054
0.9593688659
0.9375707716
0.9759146943
0.7809387972
0.7916440121
0.7696539195
0.9819897725
0.7714256228
0.7956435026
0.9736151734
0.8129455700
0.7681260092
0.8151520095
0.7770203867
0.9669985291
0.9905802728
0.8163829516
0.8125596736
0.9229739268
0.7710671161
0.8613339537
0.9429158499
0.7867365588
0.7955647184
0.8158627503
1.0026438392
0.8822270337
0.8280502100
0.9675636041
0.9495375507
0.9787386635
0.7873176797
0.7857993291
0.7656986684
0.9929153363
0.7749431545
0.8035149746
0.9753606820
0.8883294894
0.8272174074
0.7963958703
0.7919672212
0.8356005854
0.8265857977
0.7667471460
0.8384045925
0.9455372171
0.9431524137
0.9245941997
0.8121379738
0.9226407009
0.8659638712
0.7725049011
0.8302447951
0.7799449679
0.8558572631
0.8181925581
0.8231816551
0.8408845802
0.8840678150
0.7876975419
0.9062134382
0.7631770459
0.7694817632
0.8936250991
0.7592285826
0.8985149101
0.8286120638
0.7860310986
0.7794043649
0.8244837015
0.8264145387
0.7757948899
0.8351218044
0.9502188109
0.9473013661
0.9271128442
0.8213221378
0.9193234790
0.8547256009
0.7633780475
0.8285309536
0.7958742963
0.8706681004
0.8054612233
0.8392305424
0.8400744055
0.8003245872
0.7683268948
0.7636220824
0.8853408069
0.7607475532
0.7757705365
0.8052500091
0.7881665264
0.8186861543
0.7901120475
0.7742312204
0.7811087024
0.7858996480
0.9456393926
0.8183099134
0.7941529322
0.8101632684
0.8183001247
0.7984985774
0.9155632294
0.7858845781
0.7631625765
0.7916466742
0.7647524043
0.8018094811
0.7859509222
0.9658386029
0.8050508232
0.8172149744
0.7684485171
0.8050170673
0.7858566078
0.7930625581
0.8259897842
0.9869291185
0.7831610997
0.7956665676
0.8476911918
0.7928447290
0.7964327545
0.8183072332
0.8138094396
0.7647532193
0.7832813119
0.8145922421
0.7806598660
0.8104720844
0.8145293798
0.9736172028
0.8026164948
0.7714319212
0.7701263770
0.8139358215
0.7721144597
0.8103315808
0.7994984856
0.7939677653
0.8238068200
0.7955251879
0.7811986046
0.7804649276
0.7893454771
0.9567304231
0.8160991337
0.8005990146
0.8137698963
0.7934004918
0.9321093789
0.7919141167
0.7608510578
0.8048919229
0.8048881583
0.7844965485
0.9675642290
0.8091300617
0.8151674494
0.7772462371
0.7992314818
0.7867140888
0.8260896822
0.9929196350
0.7710500569
0.7734406334
0.7877647770
0.8723954904
0.8018117338
0.8168302430
0.8110166915
0.7667954826
0.7786363685
0.8137197781
0.7749489980
0.8035435746
0.8176477607
0.9804195300
0.8236484835
0.7710694025
0.7753251148
0.9361423295
0.8333819253
0.8194869977
0.8234038923
0.8213202005
0.8950740430
0.9405273583
0.7823873186
0.9193331596
0.7913466370
0.7626678759
0.7609769994
0.8346573279
0.8279694182
0.9637988408
0.9431593909
0.9562336966
0.8308113328
0.9051439531
0.9059251706
0.8269640546
0.8074412188
0.9334477159
0.8023008268
0.8181464065
0.8883300611
0.9276258783
0.8387046491
0.8387053448
0.8653407131
0.7803457780
0.7635832450
0.8223134172
0.8824207353
0.8507367486
0.9771203814
0.9500179112
0.7891307914
0.7927431586
0.9388246098
0.9290603035
0.8216311892
0.9391807159
0.8025556710
0.9472399052
0.8328614993
0.8237600969
0.8201559202
0.8185370359
0.9396024133
0.7714627089
0.9271245220
0.7901416673
0.7680458494
0.8507364025
0.8260211771
0.9705843115
0.9473107694
0.9575958225
0.8265537336
0.9098461330
0.9226709126
0.8281929719
0.7948895591
0.9388382845
0.8082365459
0.8121942416
0.8965819826
0.9246036155
0.8547250807
0.9024168786
0.8866106825
0.7964056613
0.7599112175
0.8202950447
0.8936273415
0.9830684630
0.9502280155
0.9328142969
0.8032660908
0.7937037027
0.9452202533
0.9334342553
0.8429274095
0.7964899446
0.8397819280
0.9638050312
0.9059279823
0.7985003527
0.9771292838
0.7941609249
0.7994579266
0.8032704476
0.8784192210
0.7863541348
0.9160099567
0.9618496268
0.9007651514
0.8148587149
0.8902221751
0.7779860134
0.9375540655
0.8429325983
0.8691519907
0.7779918164
0.7657042694
0.7859557209
0.9152390977
0.8050181523
0.8164416802
0.8015729899
0.7873206487
0.8148847472
0.8957484433
0.9202105827
0.8052614712
0.7956025203
0.8126785196
0.9338353390
0.7757667588
0.9548369551
0.7859059552
0.7758468455
0.8075099452
0.8226926822
0.8079936454
0.8047817730
0.9252325252
0.8206076525
0.8151012449
0.7858010940
0.7928171332
0.8178354456
0.8335171193
0.9283562442
0.7928256736
0.8055640348
0.9361446492
0.8509990906
0.7818494426
0.9409868060
0.9562379422
0.8013343706
0.8545411314
0.9705938825
0.9226731188
0.8093533178
0.9830737459
0.7893521304
0.8075123375
0.7880544587
0.8216361991
0.8685719439
0.7839837409
0.9121726307
0.9686994505
0.8937907520
0.9064634107
0.9359828788
0.8653463655
0.8816307189
0.7783905881
0.7806882805
0.7905886836
0.9188024746
0.8139433293
0.8059606865
0.8146192887
0.9038903758
0.9315625117
0.7995536454
0.8259146804
0.9325915476
0.9556290563
0.7845022773
0.8178136160
0.8093527353
0.8130665634
0.8160892202
0.9240898827
0.8103464609
0.8173361143
0.8526973355
0.9286995591
0.7990154084
0.8145464903
0.9472430759
0.8401473114
0.7876289072
0.9488352910
0.9576018219
0.7995573692
0.8866155682