<VTKFile type="UnstructuredGrid" version="0.1">
	<UnstructuredGrid>
		<Piece NumberOfPoints="1862" NumberOfCells="3498">
			<CellData>
				<DataArray type="Int32" Name="type" NumberOfComponents="1" Format="ascii">
0
0
0
0
0
0
0
0
0
0
0
0
0
0
0
0
1
0
0
1
0
0
0
0
0
0
0
0
0
0
0
0
0
1
0
0
0
0
0
0
0
0
0
0
0
0
0
0
0
0
1
0
0
0
0
0
0
0
0
0
0
1
0
0
0
0
0
0
0
0
0
0
0
0
0
0
0
0
0
0
0
0
0
0
0
0
0
0
0
0
0
0
0
0
0
0
0
0
0
0
0
0
0
0
0
0
0
0
0
0
0
0
0
0
0
0
0
0
0
0
0
0
0
1
0
0
0
0
0
0
0
0
0
0
0
0
0
0
0
0
0
0
0
0
0
0
0
0
0
0
0
1
0
1
1
0
0
0
0
0
0
0
0
0
0
0
0
0
1
0
1
0
0
0
0
1
0
0
0
0
0
0
0
0
1
1
0
0
0
0
0
1
0
0
0
0
0
0
0
0
1
0
0
0
0
0
0
0
0
0
0
0
0
0
0
0
0
0
0
0
0
0
0
0
0
0
0
0
0
0
0
0
0
1
0
0
0
0
0
0
0
0
0
0
0
0
0
0
0
0
0
0
0
0
0
0
0
0
0
0
0
0
0
0
0
0
0
0
0
0
0
0
0
0
0
0
0
0
0
0
0
1
0
0
0
0
0
0
0
0
0
0
0
0
0
0
0
0
0
0
0
0
0
0
0
0
0
0
0
0
0
0
0
0
0
0
0
0
0
0
0
0
0
0
0
0
0
0
0
0
0
0
1
0
0
0
0
0
0
0
0
0
0
0
0
0
0
0
0
0
0
0
0
0
0
0
0
0
0
0
0
0
0
0
0
0
0
0
0
0
0
0
0
0
0
0
0
0
0
0
0
0
0
0
0
0
0
0
0
0
1
0
0
0
0
0
0
0
0
0
0
0
0
0
0
0
0
0
0
0
0
0
0
0
0
0
0
0
0
0
0
0
0
0
0
0
0
0
0
0
0
0
0
0
0
0
0
0
0
0
0
0
0
0
0
0
0
0
0
0
0
0
0
0
0
0
0
0
0
0
0
0
0
0
0
0
0
0
0
0
0
0
0
0
0
0
0
0
0
0
0
0
0
0
0
0
0
0
0
0
0
0
0
0
0
0
0
0
0
0
0
0
0
0
0
0
0
0
0
0
0
0
0
0
0
0
0
0
0
0
0
0
0
1
0
0
0
0
0
0
0
0
0
0
0
0
0
0
0
0
0
0
0
1
0
0
0
0
0
0
0
0
0
0
0
0
0
0
0
0
0
0
0
0
0
0
0
0
0
0
0
0
0
0
0
0
0
0
0
0
0
0
0
0
0
0
0
0
0
0
0
0
0
0
0
0
0
1
0
0
0
0
0
0
0
0
0
0
0
0
0
0
0
0
0
0
0
0
0
0
0
1
0
0
0
0
0
0
0
0
0
0
0
0
0
0
0
0
0
0
0
1
0
0
0
1
0
0
0
0
0
0
0
0
0
0
0
0
0
0
0
0
0
0
0
0
0
0
0
0
0
1
0
0
0
0
0
0
0
1
0
0
0
0
0
0
0
0
0
0
0
0
0
0
0
0
0
0
0
0
0
0
0
0
0
0
1
0
0
0
0
0
0
0
1
0
0
0
0
0
0
1
0
0
0
0
0
0
0
0
0
0
0
0
0
0
0
0
0
0
0
0
0
0
0
0
0
0
0
0
0
0
0
0
0
0
0
0
0
0
1
0
0
0
0
0
1
0
0
0
0
0
0
0
1
0
0
0
0
0
0
0
0
0
0
0
0
0
1
0
0
0
0
0
0
0
0
0
0
0
0
0
0
0
0
0
0
0
0
0
0
0
0
0
0
0
0
0
0
0
0
0
0
0
0
0
0
0
0
0
0
0
0
0
0
0
0
0
0
0
0
0
1
0
0
0
0
0
0
0
0
0
0
0
0
0
0
0
0
0
0
0
1
0
0
0
0
0
0
0
0
0
1
0
0
0
0
0
0
0
0
0
0
0
0
0
0
0
0
0
0
0
0
0
0
0
0
0
0
0
0
0
1
0
1
0
0
0
0
0
0
0
0
0
0
0
0
0
0
0
0
0
0
0
0
0
0
0
0
0
0
0
1
0
0
0
1
0
0
0
0
0
0
0
0
0
0
0
0
0
0
0
0
0
0
0
0
0
0
0
0
0
0
0
0
1
0
0
0
0
0
0
0
0
0
0
0
0
0
0
0
0
0
0
0
0
0
0
0
0
0
1
0
0
0
0
0
0
0
0
0
0
0
0
0
0
0
0
0
0
0
0
0
0
0
1
0
0
0
0
0
0
1
0
0
0
0
0
0
0
0
0
0
0
1
0
0
0
0
0
0
0
0
0
0
0
0
0
0
0
0
0
0
0
0
1
0
0
0
0
0
0
0
0
0
0
0
1
0
0
0
0
0
0
0
0
0
0
0
0
0
0
0
0
0
0
0
0
0
1
0
0
0
0
0
0
0
0
0
1
1
0
1
0
1
0
0
0
0
0
0
0
0
0
0
0
1
0
0
0
0
0
1
1
0
0
0
0
0
0
1
0
0
0
0
0
1
1
1
0
0
0
0
0
0
0
0
0
0
0
0
1
1
0
0
1
0
0
0
0
0
1
0
0
0
1
0
1
0
0
0
0
0
0
0
1
0
0
0
0
0
0
0
1
0
0
1
0
0
0
0
0
0
0
0
0
0
0
0
0
0
0
1
0
0
0
0
0
0
0
0
0
0
0
0
0
0
0
0
0
0
0
0
0
0
0
0
0
0
0
0
0
0
0
0
0
0
0
0
1
0
0
0
0
0
0
1
0
0
0
1
0
0
0
0
0
0
0
0
0
0
0
1
0
0
0
0
0
0
0
0
0
0
0
0
0
0
0
0
0
0
0
0
0
0
0
0
0
0
0
0
0
0
0
0
0
0
0
0
0
0
0
0
1
1
0
0
0
0
0
0
0
0
0
0
0
0
0
1
0
0
0
0
0
0
0
0
0
0
0
0
0
0
0
0
0
0
0
0
0
0
0
0
0
0
0
0
0
0
0
0
0
0
0
0
0
0
0
0
0
0
0
0
0
0
0
0
0
0
0
0
0
0
0
0
0
0
0
0
0
0
0
0
0
0
0
0
0
0
0
0
1
1
0
0
0
0
0
0
0
0
1
0
0
0
0
0
0
0
0
0
0
0
0
0
0
0
0
0
0
0
0
0
0
0
1
0
0
0
0
0
0
0
0
0
0
0
0
0
0
0
0
1
0
0
0
0
0
0
0
0
0
0
0
0
0
0
0
0
0
0
0
0
0
0
0
0
0
0
0
0
0
0
0
0
0
0
0
0
0
0
0
0
0
0
0
0
0
0
0
0
0
0
0
0
0
0
0
0
0
0
0
0
0
0
0
0
0
0
0
0
0
0
0
0
0
0
0
0
0
0
0
0
0
0
0
0
0
0
0
0
0
0
1
1
0
0
0
0
0
1
0
0
0
0
0
0
0
0
0
0
0
0
1
0
0
0
0
0
0
0
0
0
0
0
0
0
0
0
0
0
0
0
0
0
0
0
0
0
0
0
0
0
0
0
0
0
0
0
0
0
0
0
0
0
0
0
0
0
0
0
0
0
0
0
0
0
1
0
1
0
0
0
0
0
0
0
0
0
0
0
0
0
0
0
0
0
0
1
0
0
0
0
0
0
0
0
0
0
0
0
0
0
0
0
0
0
0
0
0
0
0
0
0
0
0
0
0
0
0
0
0
0
0
0
0
0
0
0
0
0
0
0
0
0
0
0
0
0
0
0
0
0
0
0
0
0
0
0
0
0
0
0
0
0
0
0
0
0
1
0
0
0
0
0
0
0
0
0
0
1
0
0
0
0
0
0
0
0
0
0
0
0
0
0
0
0
0
0
0
0
0
0
0
0
0
0
0
0
0
0
0
0
0
0
0
0
0
1
0
0
0
0
0
0
0
0
0
0
0
0
0
0
0
0
0
0
0
0
0
0
0
0
0
0
0
0
0
0
0
0
0
0
0
0
0
0
0
0
0
0
0
0
0
0
0
0
0
0
0
0
0
0
0
0
0
0
0
0
0
0
0
0
0
0
0
0
0
0
0
0
0
0
0
0
0
0
0
0
0
1
0
0
0
0
0
0
0
0
0
0
0
0
0
0
0
0
0
0
0
0
0
0
0
0
0
0
0
0
0
0
0
0
0
0
0
0
0
0
0
0
0
0
0
0
0
0
0
0
0
0
0
0
0
0
0
0
0
0
0
0
0
0
0
0
0
0
0
0
0
0
0
0
0
0
0
0
0
0
0
0
0
0
0
0
0
0
0
0
0
0
0
0
0
0
0
0
0
0
0
0
0
0
0
0
0
0
0
0
0
0
0
0
0
0
0
0
0
0
0
0
0
0
0
1
0
0
0
0
0
0
0
0
0
0
0
0
0
0
0
0
0
0
0
0
0
0
0
0
0
0
0
0
0
0
0
0
0
0
0
0
0
0
0
0
0
0
0
0
0
0
0
0
0
0
0
0
0
0
0
0
0
0
0
0
0
0
0
0
0
0
0
0
0
0
0
0
0
0
0
0
0
0
0
0
0
1
0
0
0
0
0
0
0
1
0
0
0
0
0
0
0
0
0
0
0
0
0
0
0
0
0
0
0
0
0
0
0
0
0
0
0
0
0
0
0
0
0
0
0
0
0
1
0
0
0
0
0
0
0
0
0
0
0
0
0
0
0
0
0
0
0
0
0
1
0
0
0
0
0
0
0
0
0
0
0
0
1
1
0
0
0
0
0
0
0
0
0
0
0
0
0
0
0
1
1
0
1
0
0
0
0
0
0
0
0
0
1
0
0
0
0
0
0
1
0
0
0
0
0
0
0
0
0
0
1
0
0
0
0
1
0
1
0
0
0
0
0
0
0
1
0
0
0
1
0
0
0
1
0
1
1
0
0
1
1
0
0
0
1
0
0
0
1
0
0
0
0
0
0
0
0
0
1
0
0
0
0
0
0
1
0
0
0
0
0
0
0
0
0
0
0
0
0
0
0
0
0
0
0
0
0
0
0
0
0
0
0
1
0
0
1
0
0
0
0
0
0
0
0
0
0
0
0
0
0
0
0
0
0
1
0
0
1
0
0
0
0
0
0
0
0
0
0
0
1
0
0
1
0
0
0
0
0
0
0
0
0
0
0
1
1
0
0
0
0
0
0
0
0
0
0
0
0
1
0
0
0
0
0
0
0
0
0
0
0
0
0
0
0
0
0
1
0
0
0
0
0
0
0
0
0
0
0
0
0
0
0
0
0
1
0
0
0
0
0
0
0
0
0
0
0
0
0
0
0
0
0
0
0
0
0
0
0
0
0
0
0
0
0
0
0
0
0
0
0
0
0
0
0
0
1
0
0
0
0
0
0
0
0
0
0
0
0
0
0
0
0
0
0
0
0
0
0
0
0
0
0
0
0
0
0
0
0
0
0
0
0
0
0
0
0
0
0
0
0
0
1
0
0
0
0
0
0
0
0
0
0
0
0
0
0
0
0
0
0
0
0
0
0
0
0
0
0
0
0
0
0
0
0
0
0
0
0
0
0
0
0
0
0
0
0
0
0
0
1
0
0
0
0
0
0
0
0
0
0
1
0
0
0
0
0
0
0
0
0
0
0
0
0
0
0
1
0
0
1
0
0
0
0
0
0
0
0
0
0
0
0
0
0
0
0
0
0
0
0
0
0
0
1
0
0
0
0
0
0
0
0
0
0
0
0
0
0
0
0
0
0
0
0
0
0
0
0
0
0
0
0
0
0
0
0
0
0
0
1
0
0
0
0
0
0
0
0
0
0
0
0
0
0
0
0
0
0
0
0
0
0
0
0
0
0
0
0
0
0
0
0
0
0
0
0
0
0
0
0
0
0
0
0
0
0
0
0
0
0
0
0
0
0
0
0
0
0
0
0
0
0
0
0
0
0
0
0
0
0
0
0
0
0
0
0
1
0
0
0
0
0
0
0
0
0
0
0
0
0
0
0
0
0
0
0
0
0
0
0
0
0
0
0
0
0
0
0
0
0
0
0
0
0
0
0
1
0
0
0
0
0
0
0
0
0
0
0
0
1
1
0
0
0
0
0
0
0
0
0
0
0
0
0
0
0
0
0
0
0
0
0
0
0
0
0
0
0
0
0
0
0
0
0
0
0
0
0
0
0
0
0
0
0
0
0
0
0
0
0
0
0
0
0
0
0
0
0
0
0
0
0
0
0
0
0
0
0
0
0
0
0
0
0
0
0
0
0
0
0
0
0
0
0
0
0
0
0
0
0
0
0
0
0
0
0
0
0
0
0
0
0
1
0
1
0
0
0
0
0
0
0
1
1
1
1
0
0
0
0
0
0
0
0
0
0
0
0
0
0
0
0
0
0
0
0
0
0
0
0
0
0
0
0
1
1
0
0
0
0
0
0
0
0
0
0
0
0
0
0
0
0
0
0
1
0
0
0
0
0
0
0
1
1
0
1
1
0
0
1
0
0
0
0
0
0
0
1
0
1
0
0
0
0
0
0
0
0
0
0
0
0
0
0
0
0
0
0
0
0
0
0
0
0
0
0
0
1
1
0
0
0
1
1
0
0
0
0
1
0
0
1
0
1
0
0
0
0
0
1
0
0
0
1
0
0
0
0
0
0
0
0
0
0
0
0
0
0
0
0
0
0
0
0
0
0
0
0
0
0
0
1
0
0
0
0
0
0
1
0
0
0
0
0
0
0
0
0
0
0
0
0
0
0
0
0
0
0
0
0
0
0
0
0
0
0
0
0
1
0
1
0
0
0
0
0
0
0
1
0
0
0
0
0
0
0
0
0
0
0
1
0
0
0
0
0
0
0
0
0
1
0
0
0
0
0
0
0
1
0
0
0
0
0
0
0
1
0
0
0
0
0
0
0
0
0
0
0
0
0
0
0
0
0
0
0
1
0
1
0
0
0
0
0
1
0
0
0
0
0
0
0
0
0
0
0
0
0
0
0
0
0
0
0
0
0
0
0
0
0
1
0
1
0
0
0
0
0
0
0
0
0
1
0
0
0
0
0
1
0
0
0
0
0
0
0
0
0
0
0
0
0
0
0
1
0
0
0
0
0
0
0
0
1
0
0
0
0
0
0
0
0
0
0
0
0
0
0
0
0
0
0
0
0
0
0
0
0
0
0
0
0
0
0
1
0
0
0
0
0
0
0
0
0
0
0
0
0
0
0
0
1
0
0
0
0
0
0
0
0
1
0
0
0
0
0
0
0
0
0
1
0
0
0
0
0
1
0
0
0
0
0
0
0
0
0
0
0
0
0
0
0
0
0
0
0
1
0
0
0
0
0
0
1
0
0
0
0
0
0
0
0
1
0
0
0
0
0
0
0
0
0
0
0
0
0
0
1
0
0
1
0
0
0
1
0
0
0
0
0
0
0
0
0
0
0
0
0
0
0
0
1
0
0
0
0
0
0
0
0
0
0
1
0
1
0
0
0
0
0
0
1
0
0
0
0
0
0
0
0
0
0
0
0
0
0
0
0
0
0
0
0
0
0
0
0
0
0
0
1
1
0
0
0
0
0
0
1
0
0
0
0
0
0
0
0
0
0
0
0
0
1
0
0
0
0
0
0
0
1
0
0
0
0
0
0
0
0
0
0
0
0
0
0
0
0
0
0
0
0
0
0
0
0
0
0
0
1
0
0
0
0
0
0
0
0
0
0
1
0
0
1
0
0
0
0
0
0
0
0
0
0
0
0
0
0
0
0
0
0
0
0
0
0
0
0
0
0
0
0
0
1
0
0
0
0
0
0
0
1
0
0
0
0
0
0
0
1
0
0
0
0
1
0
0
0
0
0
0
0
0
0
0
0
1
0
1
0
0
0
1
0
				</DataArray>
				<DataArray type="Float64" Name="h" NumberOfComponents="1" Format="ascii">
0.8946823076
0.8947182213
0.8903258441
0.8940383472
0.8895011294
0.8912683552
0.8920313002
0.8960370711
0.8938168371
0.8991914945
0.8957178134
0.8915010721
0.8947827675
0.8972258889
0.8953787027
0.8960900864
0.8931096652
0.8981895038
0.8929687288
0.8960795703
0.8884262110
0.8933093862
0.8890286869
0.8882771334
0.8943744352
0.8990643116
0.8874203561
0.8755403350
0.8877420975
0.8984241084
0.8972138037
0.8903333278
0.8922730816
0.8902635389
0.8815826639
0.8859824878
0.8847105751
0.8856316640
0.8726887579
0.8874570698
0.8883783192
0.8781652207
0.8888018551
0.8843031970
0.8861177125
0.8789541565
0.8871882888
0.8792333013
0.8397142910
0.8443187817
0.8870827103
0.8830462190
0.8856016941
0.8677330818
0.8813471035
0.8848350630
0.8804500684
0.8735046085
0.8715932235
0.8713179215
0.8638389629
0.8671955825
0.8442314074
0.8839252908
0.8812150046
0.8697097662
0.8478636499
0.8490033828
0.8673518076
0.8706036473
0.8697799062
0.8821680879
0.8817193842
0.8650100057
0.8685819125
0.8624003963
0.8735555965
0.8633576475
0.8762568005
0.8672210427
0.8558894350
0.8678035409
0.8254395175
0.8523916790
0.8688502513
0.8616948544
0.8526481965
0.8536146614
0.8605250035
0.8291502018
0.8502963770
0.8638535058
0.8600053107
0.8331001296
0.8617056529
0.8636833735
0.8547261098
0.8693903750
0.8692814945
0.8529980103
0.8281812519
0.8560781991
0.8615019748
0.8760726109
0.9015049658
0.8499292404
0.8553748125
0.8360842037
0.8648753515
0.8635404565
0.8362642038
0.8321248256
0.8542127794
0.8474226080
0.8601617945
0.8336506256
0.8627588124
0.9015029427
0.8373118546
0.8574826053
0.9017621179
0.8562075628
0.8560773500
0.9043240609
0.8517484996
0.8348774320
0.8606171158
0.9047959015
0.8371683149
0.8318587757
0.8404101906
0.8573730862
0.8569867483
0.8336041255
0.9011873151
0.8415951969
0.9000906591
0.8308813839
0.8482877331
0.8933933666
0.9053014944
0.9028546542
0.8358710152
0.8891741055
0.8576306823
0.8448857609
0.8964700564
0.8229390637
0.9035970377
0.8206782377
0.9010448602
0.8300500959
0.8276284308
0.8216655404
0.8517823508
0.8276312636
0.8239893482
0.9034678569
0.8214743027
0.9077786339
0.8917280188
0.8239713793
0.8983077187
0.9057366049
0.9043024613
0.8258949409
0.8838303030
0.8959689890
0.9067425208
0.8252404834
0.8253644195
0.9081566066
0.8224414919
0.9036537800
0.8807276878
0.8199931740
0.8867239576
0.8196258009
0.8202540251
0.9057899541
0.8278231401
0.8739988309
0.9077136776
0.8521071234
0.9080666602
0.9104434213
0.8776943892
0.8203873588
0.9077247500
0.9115110604
0.8670832246
0.8203588912
0.9093879068
0.8709838337
0.8202755212
0.8218822552
0.9045843010
0.8603621548
0.8641847535
0.8183132740
0.9116619501
0.8497931200
0.9108814166
0.8196132828
0.8538858516
0.9070415400
0.8950019458
0.9008917013
0.8574743949
0.8861124653
0.8668988087
0.9096021942
0.9059248521
0.9080055517
0.8981613127
0.8599854101
0.8909989644
0.9053258083
0.8737657897
0.9081897902
0.8510796856
0.8294966496
0.8802896929
0.8363497217
0.8459953134
0.8179320531
0.8231925542
0.8426297258
0.8477128003
0.8261603768
0.8188605831
0.8330038716
0.8447302963
0.8176622354
0.8189720454
0.8395670123
0.8633635249
0.8929073344
0.9091160465
0.8832144209
0.8636458150
0.8992997040
0.9057683512
0.8832503685
0.8995497860
0.8933922060
0.9064264098
0.8701628823
0.8964489799
0.9039663076
0.8884929443
0.8705203161
0.9044878486
0.8566746034
0.8570639189
0.9067150883
0.8887587486
0.8969149518
0.9080118686
0.8333608505
0.8771516467
0.8422393412
0.8385358621
0.8331247602
0.8434753800
0.8185617984
0.8168765716
0.8474014911
0.8170532431
0.8270739797
0.8216794329
0.8769422128
0.8269030486
0.8393023632
0.8364340309
0.8449134539
0.8403332414
0.8359764196
0.8300051373
0.8451615642
0.8238184823
0.8165049067
0.8173742763
0.8178909412
0.8242273158
0.8301784365
0.8418998469
0.8908582522
0.9049536036
0.9043399560
0.8908530551
0.8606806118
0.8977375051
0.8979636797
0.8807951513
0.8618807034
0.8802004696
0.8946453917
0.9024696627
0.9067203536
0.9051273822
0.8948277902
0.8672619963
0.8557792799
0.8544713427
0.8862673402
0.8683312924
0.8859339685
0.9028862178
0.8399130432
0.8354459370
0.8351272955
0.8157890526
0.8455433141
0.8202277081
0.8299869072
0.8747350064
0.8247846181
0.8157992941
0.8739462083
0.8302465982
0.8398186661
0.8247914914
0.8174712155
0.8374801703
0.8378563586
0.8329169199
0.8162460653
0.8328522369
0.8271593373
0.8219518638
0.8167983039
0.8153196468
0.8437038430
0.8275486487
0.8421560729
0.8224155055
0.8886075300
0.8127030962
0.8792675782
0.8616218167
0.8780044769
0.9033136782
0.8594456545
0.8961863737
0.8891474757
0.8961618883
0.9027781235
0.8145615933
0.8396867067
0.8560468734
0.8244612223
0.8927696880
0.9012834441
0.8128340038
0.8845568552
0.8367570047
0.8675270266
0.8836565145
0.8206214434
0.8186502344
0.8104886370
0.9051326020
0.8656964604
0.8538011866
0.8930186931
0.8516185358
0.8452342009
0.8310736014
0.9033435475
0.8283437329
0.8159579769
0.9009418815
0.8147292315
0.8272596416
0.8281444341
0.8163469021
0.8976026052
0.8187849627
0.8395616497
0.8454211853
0.8224072958
0.8145594220
0.8735062675
0.8228982708
0.8719395865
0.8376937550
0.8325317270
0.8332336132
0.8858766907
0.8141599844
0.8442946523
0.8299904987
0.8667605271
0.8156751878
0.8254342130
0.8960402100
0.8926157662
0.8907350457
0.8755863052
0.8359256084
0.8201903382
0.8793779728
0.8246859593
0.8713107084
0.8151395774
0.8207269127
0.8409448460
0.8350440341
0.8828277855
0.8307785634
0.8452317346
0.8217244501
0.8418921317
0.8869521123
0.8133199677
0.8172331757
0.8768933993
0.8212397353
0.8379265033
0.8544977687
0.8587709711
0.8944774483
0.8164234523
0.8112902482
0.8273861311
0.8130830941
0.9016136465
0.8183721909
0.8599160086
0.8350199847
0.8108201746
0.8246833737
0.8138978069
0.8323337238
0.8275145933
0.8155023148
0.8193120554
0.8142784534
0.8570282914
0.8441259715
0.8305976184
0.8910474687
0.8201463757
0.8500492400
0.8821943754
0.8338853624
0.8403645863
0.8244430367
0.8183424803
0.8254285616
0.8123199433
0.9033492307
0.8428390457
0.8654466454
0.8587750597
0.8090468104
0.8134286445
0.8337519501
0.8111977174
0.8996639051
0.8547794409
0.8859738967
0.8133942107
0.8711310175
0.8254504738
0.8304734289
0.8371266985
0.8738260933
0.8931637142
0.8152836303
0.8768385673
0.8204975113
0.8666414757
0.8466928843
0.8308585140
0.8090159142
0.8857065063
0.8999429239
0.8963642177
0.8954614976
0.8569953779
0.8899011567
0.8140706246
0.8149045543
0.8124781504
0.8183727659
0.8942040480
0.8281730139
0.8935559949
0.8474259749
0.8414035922
0.8073589953
0.8981301837
0.8960514998
0.8885051857
0.8816190162
0.8092572638
0.8228446525
0.8953237884
0.8271910726
0.8185779183
0.8884439441
0.8907427391
0.8755902125
0.8717656450
0.8337750423
0.9015179672
0.8527255605
0.8425242441
0.8941941209
0.8616664265
0.8313721020
0.8768510477
0.8588820095
0.8999502498
0.8261946641
0.8502793156
0.8997695923
0.8792926002
0.8616777606
0.8386305643
0.8460454088
0.8111293908
0.8876291411
0.8184933273
0.8963699320
0.8352153819
0.8641461643
0.8648551751
0.8217287467
0.8859857122
0.8294344473
0.8938808414
0.8931728030
0.8816036437
0.8981384081
0.8816315623
0.9015244149
0.8641475386
0.8570050885
0.8857993497
0.8943689653
0.9012185214
0.8915607108
0.8836910235
0.8954288489
0.8666533257
0.8891736484
0.8949598204
0.8099196594
0.8932946653
0.8910227156
0.8710725815
0.8981729788
0.8650549632
0.8602341311
0.8952356373
0.8156613388
0.8115852422
0.8696830152
0.8954415433
0.8134202725
0.8899114747
0.8766459713
0.8193033675
0.8717778179
0.8304685103
0.8371426875
0.8123240477
0.8745588200
0.8416938193
0.8225134784
0.8363567725
0.8379287728
0.8985459677
0.8490318603
0.8535224057
0.8313671300
0.8722660357
0.8845586000
0.8244450075
0.8271853930
0.8962299844
0.8481423277
0.8934095758
0.8142746330
0.8217219447
0.8338820327
0.8983166433
0.8130879086
0.8844996775
0.8906808584
0.8779025336
0.8995336771
0.8428442331
0.8678688433
0.8997322296
0.8077585136
0.8824242338
0.8691819357
0.8765961695
0.8101522295
0.8879620181
0.8273866043
0.8990444601
0.8938372460
0.8139333681
0.8172190357
0.8925028414
0.8968233962
0.8954810380
0.8164862233
0.8967351986
0.8535223128
0.8909109775
0.8375359331
0.8938912569
0.8745687834
0.8648643509
0.8876396152
0.8094545738
0.8588138207
0.8971685299
0.8997781325
0.8807383113
0.8955374126
0.8117272287
0.8981825005
0.9022562948
0.8938381534
0.8982524266
0.9022734902
0.8602419863
0.8793027998
0.8696927219
0.8910331977
0.8202397810
0.8093724099
0.8273234650
0.8428038726
0.9012262493
0.8981246889
0.8895617506
0.8720937618
0.8076086550
0.8204610959
0.8710730337
0.8985837015
0.8112416754
0.8966934639
0.8836725921
0.8972164054
0.8922127050
0.8939491514
0.8761741004
0.8678899357
0.8837014216
0.8252642158
0.8869148848
0.8982523192
0.8942939452
0.8323625928
0.8156575054
0.8066326040
0.8305160624
0.8926299904
0.8800682312
0.8959799560
0.8897586794
0.8069495779
0.8052936794
0.8816050893
0.9009584648
0.8882396349
0.9008826455
0.8202447470
0.9006421372
0.9017833745
0.8028992429
0.8068744428
0.8886041361
0.8937273710
0.8177634096
0.8975598724
0.9011692256
0.8995698497
0.8107691095
0.8047868827
0.8079107726
0.8980674702
0.8978134982
0.8963466164
0.8975637856
0.8996627691
0.8133060575
0.8093018850
0.8226557362
0.8179011086
0.8932539996
0.8060150448
0.8019995882
0.8953533201
0.8093797458
0.8142728752
0.8925101337
0.8014961458
0.8932980217
0.8056633644
0.8961312964
0.8961878872
0.8024550873
0.8967409359
0.8039935561
0.8040634012
0.8954494218
0.8052512668
0.8954504529
0.8947346970
0.8083334938
0.8063223330
0.8967780809
0.8918565383
0.8920259129
0.8920591624
0.8918904913
0.8930706441
0.8914872229
0.8956986437
0.8955997847
0.8901867553
0.8912529005
0.8895217056
0.8902118733
0.8938373985
0.8953521112
0.8920095291
0.8984341470
0.8956236110
0.8930865789
0.8968620897
0.8981707154
0.8940569406
0.8903404540
0.8929331475
0.8984073922
0.8969262585
0.8915291345
0.8960607733
0.8990534000
0.8943568052
0.8992099653
0.8950925032
0.8948149242
0.8895154364
0.8945846025
0.8918956482
0.8984524955
0.8971978766
0.8968902577
0.8902518224
0.8922372712
0.8902853759
0.8901906298
0.8874428183
0.8739898608
0.8931253116
0.8961114717
0.8887549552
0.8726441132
0.8915429287
0.8969469280
0.8883446832
0.8972431439
0.8960945131
0.8895280737
0.8890749580
0.8776149076
0.8933432654
0.8861368973
0.8951241264
0.8884370507
0.8919428982
0.8907473755
0.8733972213
0.8792227602
0.8946105698
0.8860968417
0.8870728183
0.8871342080
0.8755766844
0.8882935430
0.8877757642
0.8804104271
0.8763027462
0.8874697098
0.8828228766
0.8990331290
0.8740354656
0.8792230621
0.8806101411
0.8902308036
0.8855556308
0.8776225650
0.8406664277
0.8483250493
0.8907913389
0.8861501419
0.8840262860
0.8734194088
0.8860073977
0.8811669669
0.8856837896
0.8788073727
0.8815946591
0.8442715985
0.8490352618
0.8750878007
0.8847201056
0.8838992259
0.8792355213
0.8755349076
0.8734296050
0.8843475266
0.8650200680
0.8714334993
0.8821522509
0.8816648374
0.8706167065
0.8753721112
0.8792986839
0.8828357440
0.8637299770
0.8806194689
0.8781865981
0.8735535543
0.8697826969
0.8647343760
0.8685857620
0.8763530218
0.8831070780
0.8673549606
0.8832492202
0.8990518444
0.8705968171
0.8840420458
0.8788185953
0.8675205689
0.8751062784
0.8526872464
0.8769866101
0.8446509335
0.8396637074
0.8830770411
0.8482902941
0.8789935017
0.8677913537
0.8524152415
0.8729710235
0.8406165056
0.8442734933
0.8638341749
0.8672003431
0.8831593529
0.8603323204
0.8647172972
0.8715921939
0.8745138202
0.8714347466
0.8649926311
0.8784984741
0.8755399808
0.8832587448
0.8767599388
0.8813648201
0.8683609846
0.8706175033
0.8637296252
0.8848847366
0.8692674138
0.8677312313
0.8754235529
0.8677314366
0.8734310208
0.8713170461
0.8638118861
0.8735088564
0.8793484574
0.8600119597
0.8526591952
0.8760624968
0.8692428791
0.8729761401
0.8714529874
0.8769930486
0.8560857676
0.8474437547
0.8571030890
0.8555044592
0.8697346086
0.8282119367
0.8478322444
0.8783379207
0.8693416479
0.8596984212
0.8636536025
0.8738098845
0.8446117923
0.8530060819
0.8499416879
0.8675553947
0.8245841946
0.8692759424
0.8648818767
0.8321700916
0.8603278069
0.8677245989
0.8542249232
0.8767665986
0.8624473875
0.8369891385
0.8745171077
0.8633521209
0.8785494019
0.8484942025
0.8650367160
0.8363174006
0.8635270849
0.8683578555
0.8570957282
0.8245673125
0.8671111545
0.8596935421
0.8617345705
0.8562077424
0.8615368752
0.8783476533
0.9016681229
0.8738136474
0.8554890106
0.8689003206
0.8672699723
0.8526405330
0.8254185694
0.8558814226
0.8627593656
0.8762644507
0.8474204327
0.9017525358
0.8536075957
0.8715015675
0.8484838340
0.8573510153
0.8401920821
0.9005950886
0.8349173791
0.8560571418
0.8457149283
0.8605074591
0.8617294759
0.8330540804
0.8330987531
0.8291171746
0.8502822006
0.8389195437
0.8733404406
0.8517746813
0.8606298328
0.8369409935
0.8318709050
0.8615077726
0.8301377576
0.8404114338
0.8671118057
0.9016784066
0.8615146180
0.8428823281
0.9011763056
0.8416098750
0.8570163764
0.9015153221
0.8547387391
0.8575961949
0.8430856922
0.9028450351
0.8531105848
0.9006039412
0.8330821491
0.8473951676
0.8360387553
0.8989538094
0.8733504709
0.8456973830
0.8601540773
0.9035905408
0.8401481297
0.8358799275
0.9054164323
0.8336405264
0.8560415002
0.8448966855
0.8388900453
0.8554034628
0.9027809053
0.8585042861
0.8431392257
0.8280832385
0.8301163264
0.8428460940
0.9024327932
0.8329821502
0.8314134038
0.8482791878
0.8574583232
0.8403786230
0.8300640512
0.9015138678
0.8446331732
0.8372909432
0.9000911503
0.9010406585
0.8276368650
0.8517934422
0.8989661959
0.9054227113
0.8959579391
0.9042960982
0.8530827310
0.8229617346
0.9027890961
0.9054935484
0.8205573587
0.8467328716
0.8430621243
0.9043323328
0.8371590546
0.8917035304
0.9030029511
0.8561163817
0.8403994526
0.8999765409
0.8983028168
0.8401953590
0.8239771874
0.9048011294
0.8214816199
0.8482674083
0.9000989064
0.8335907263
0.8262517963
0.8468010915
0.8313836865
0.8303152780
0.8308730782
0.8224518985
0.8989335304
0.9028175145
0.8482753921
0.9001038529
0.8431304378
0.9024371031
0.8280710780
0.8585394569
0.8446217067
0.8252466410
0.8405047299
0.8329726024
0.8253770023
0.9036470997
0.8206709685
0.9077076478
0.8501930101
0.9030106224
0.9054977096
0.8262749729
0.8239911362
0.8213497880
0.8892082657
0.8229319650
0.8964798907
0.9057839020
0.8205516052
0.8999889927
0.8467294560
0.9070739787
0.9053065957
0.8278320200
0.8401834590
0.8866887216
0.8438326152
0.8934153284
0.8229541751
0.9068996407
0.9077193436
0.8276232879
0.8239788600
0.9028227791
0.8486149857
0.8262448807
0.9017331214
0.8989456182
0.8468066915
0.9080617176
0.8303063908
0.8216532509
0.9034732847
0.8404913683
0.8776502953
0.8510864768
0.8202876455
0.8838725755
0.9069041113
0.8262605545
0.8218906810
0.9070804129
0.8213410859
0.8438194547
0.8229199771
0.9086381573
0.8239833296
0.8502141598
0.9061804613
0.8203700310
0.8363191579
0.9057407045
0.8258834710
0.8709399124
0.8199731448
0.9077841976
0.8497493382
0.8194816007
0.9081616943
0.9108772718
0.8807682281
0.8196220415
0.8486412000
0.9067482910
0.9116559092
0.9017438802
0.8641420227
0.8194475671
0.8202429255
0.9052705978
0.9086427764
0.9061845443
0.9095995193
0.8199676736
0.8229139631
0.9065302954
0.8217728454
0.8740403710
0.8363051248
0.8199803265
0.8511200535
0.9101604562
0.9105835989
0.8196207763
0.9059197494
0.8574493938
0.8671232044
0.8188674502
0.8194706030
0.9115159879
0.8194376185
0.8194945421
0.8187130407
0.8521486752
0.9104479303
0.8203779669
0.8510263609
0.9064226735
0.8933819488
0.9037737917
0.8995490005
0.8603917091
0.9105856591
0.8534069635
0.9087514174
0.8832217330
0.9033371434
0.9052772727
0.8633333251
0.9093900399
0.9094754787
0.8217647611
0.9045904786
0.9084711625
0.8969121056
0.9021532854
0.8566566836
0.8887374297
0.9044841810
0.8701308387
0.9101640016
0.9091090363
0.9065357567
0.8184780446
0.8504715639
0.8539286826
0.8194868322
0.8302176195
0.8769105229
0.8187038219
0.8364493679
0.8451186917
0.8173777743
0.8238405596
0.8207023956
0.8418670206
0.8473786800
0.8269336118
0.8183050855
0.8333967920
0.8434483953
0.8170593303
0.8205450230
0.8185657256
0.8392930852
0.8669342037
0.8908427511
0.9018599629
0.9081948290
0.8801778447
0.8606594164
0.9033408375
0.8534188803
0.9037793480
0.9076660362
0.8509392059
0.8979634459
0.9049495572
0.9087558805
0.8861400481
0.9008946354
0.8950105147
0.9070460387
0.8737999899
0.8948247407
0.9028823691
0.9094828318
0.8859156790
0.8672382163
0.9053290860
0.8600191863
0.8544514636
0.9005793081
0.9073921539
0.8910179128
0.9021564755
0.8981651145
0.9084782538
0.8329618406
0.8739223706
0.8486338577
0.8421355479
0.8378232750
0.8328512842
0.8447642617
0.8205368110
0.8189685285
0.8162466625
0.8477431070
0.8176536722
0.8194710970
0.8271873203
0.8222029897
0.8803218168
0.8184722557
0.8261344202
0.8395626149
0.8363183213
0.8455281814
0.8397904645
0.8354279158
0.8300356382
0.8460508885
0.8231736406
0.8206937971
0.8157922109
0.8504866664
0.8179283546
0.8174729558
0.8248413051
0.8192950844
0.8294599936
0.8426526226
0.8885961717
0.9003144685
0.9057720569
0.9076710538
0.9033086189
0.8929151048
0.8636731579
0.8502381132
0.8961594659
0.8509613337
0.8993011789
0.8779861804
0.8594285179
0.8832356879
0.9018628778
0.8927641412
0.9012795158
0.9073981982
0.9060684888
0.8964514951
0.8705469456
0.8537833552
0.8989120374
0.8570877153
0.9005809342
0.8836402682
0.8656781940
0.8885086654
0.9039697251
0.8409308075
0.8359863268
0.8350314322
0.8164992652
0.8449290745
0.8202037074
0.8299799148
0.8719209961
0.8244219080
0.8192869300
0.8183263272
0.8151361482
0.8486739617
0.8771759172
0.8299807200
0.8403647280
0.8246433087
0.8178871426
0.8376739483
0.8385745457
0.8325151918
0.8168754663
0.8486510017
0.8180717158
0.8331129312
0.8270306370
0.8216593116
0.8163460050
0.8145589173
0.8454097768
0.8272888137
0.8422701871
0.8224532739
0.8194607952
0.8133244921
0.8350247194
0.8510237158
0.8212443223
0.8908669078
0.9003173370
0.8121113911
0.8141002588
0.8768780860
0.8394636053
0.8599012145
0.8808126288
0.8232308567
0.8164316088
0.8117038436
0.9043446321
0.8619012042
0.8502575273
0.8944714390
0.8869399132
0.8977397358
0.8452307861
0.8518092078
0.8275193507
0.9016079503
0.8302306060
0.8179119519
0.8987828106
0.8149192572
0.8374671488
0.8547646948
0.8236284925
0.8946493160
0.9024740439
0.8113558396
0.8126545425
0.8821797202
0.8345407149
0.8654317374
0.8862814383
0.8215780468
0.8184045799
0.8111323826
0.9060738143
0.8683524338
0.8557990206
0.8973156794
0.8910389387
0.8989145264
0.8488710182
0.8478262332
0.8293559932
0.9045116032
0.8264425603
0.8157809972
0.8996584396
0.8829595301
0.8140640447
0.8501597119
0.8275231528
0.8743475709
0.8171383760
0.8281664091
0.8167943002
0.8963529987
0.8969462427
0.8914099776
0.8183935719
0.8935488678
0.8827494309
0.8413937531
0.8180690858
0.8437137376
0.8754283851
0.8223637626
0.8663345584
0.8153177215
0.8711159060
0.8228525961
0.8747544186
0.8375022990
0.8329340629
0.8886136220
0.8337713824
0.8884393611
0.8133905093
0.8466827123
0.8302495238
0.8691796179
0.8152822051
0.8254493430
0.8183180142
0.8969781817
0.8974679794
0.8939333859
0.8169189846
0.8924776756
0.8785321355
0.8371177615
0.8202205012
0.8486892332
0.8824209569
0.8247701593
0.8738231498
0.8157990193
0.8205107113
0.8399290113
0.8351495567
0.8857028043
0.8308559856
0.8427072696
0.8175648974
0.8215358093
0.8160070295
0.8502787145
0.8394613165
0.8386328875
0.8329516309
0.8891577814
0.8137247956
0.8240071979
0.8174998562
0.8137293774
0.8568441049
0.8792827169
0.8207721090
0.8361353742
0.8518116189
0.8330752366
0.8558874956
0.8437721620
0.8961914222
0.8164772103
0.8116995711
0.8269551710
0.8156705421
0.8207745416
0.8217398546
0.8136971105
0.9027838750
0.8461583414
0.8179055799
0.8616381383
0.8516214049
0.8544954321
0.8099276944
0.8115931891
0.8330681818
0.8294391591
0.8106255282
0.8232226531
0.8140909083
0.8127931704
0.8987876056
0.8510387652
0.8302257704
0.8260054730
0.8112937007
0.8396855993
0.8149432756
0.8193204997
0.8183806279
0.8145843671
0.8545859771
0.8452343191
0.8416906066
0.8282766591
0.8930254343
0.8121095522
0.8221447697
0.8154251846
0.8522542587
0.8845703495
0.8186434923
0.8324153491
0.8590959929
0.8590928463
0.8380893487
0.8973211203
0.8145515450
0.8128290471
0.8241221591
0.8176736790
0.8234372171
0.8130692285
0.9045176808
0.8406373916
0.8323377418
0.8206148016
0.8675439604
0.8558918669
0.8094619976
0.8134104357
0.8310680245
0.8315266256
0.8097476856
0.8264358087
0.8157753735
0.8109477130
0.9009470031
0.8560629980
0.8345350571
0.8244557696
0.8880131679
0.8141605238
0.8164960787
0.8101623458
0.8169102824
0.8735223716
0.8954724076
0.8254310200
0.8924846494
0.8416958529
0.8296582254
0.8359345494
0.8713141821
0.8077688302
0.8973800712
0.8969572277
0.8948338993
0.8156733414
0.8907022094
0.8787733200
0.8112520673
0.8207033362
0.8951318876
0.8298744328
0.8154388672
0.8829649596
0.8926246377
0.8711672736
0.8711717141
0.8680346842
0.8443044121
0.8307875233
0.8089354362
0.8828326274
0.8787969312
0.9012125448
0.8976137238
0.8490267642
0.8464645435
0.8961057252
0.8945333167
0.8576215219
0.8959021758
0.8268364152
0.8917363963
0.8147298771
0.8139437865
0.8121055632
0.8187720435
0.8951146297
0.8281522750
0.8939416553
0.8454194318
0.8395704927
0.8787994520
0.8076195118
0.8994640699
0.8974793044
0.8958942201
0.8171331895
0.8906751769
0.8836659110
0.8088643003
0.8228970533
0.8961161738
0.8249633911
0.8166846384
0.8858824044
0.8914186043
0.8785353072
0.8861940531
0.8734929074
0.8501734615
0.8332364947
0.8082739347
0.8886175227
0.9028498100
0.8969894913
0.8934266077
0.8530562655
0.8406348810
0.8965405117
0.8951225551
0.8626654715
0.8291860534
0.8764160110
0.8973878402
0.8787861889
0.8568447309
0.9012192468
0.8239978076
0.8570296339
0.8530657862
0.8919279728
0.8478043177
0.8967777934
0.8984393535
0.8959795039
0.8120551331
0.8779853878
0.8362897366
0.8965749228
0.8626779813
0.8853416885
0.8362865047
0.8293488902
0.8437709287
0.8940335424
0.8164866130
0.8113570949
0.8588815159
0.8488743431
0.8120473612
0.8910570230
0.8860369059
0.8175537583
0.8183987283
0.8656967846
0.8956377662
0.8427058334
0.8962485499
0.8329473852
0.8283392999
0.8618941582
0.8716740832
0.8139057206
0.8559065656
0.8957262755
0.8127030712
0.8129758773
0.8478271843
0.8206854551
0.8098550791
0.8644809747
0.8954969126
0.8206744498
0.8152936790
0.8880242838
0.8834971097
0.8272700482
0.8923498936
0.8948421193
0.8159507509
0.8832573296
0.8994712345
0.8836782908
0.8639552508
0.9028563966
0.8282706592
0.8618959142
0.8352191017
0.8576327568
0.8875424034
0.8441253168
0.8959663819
0.8997822364
0.8937251768
0.8821990185
0.8963090958
0.8680478410
0.8912926012
0.8418931407
0.8337485982
0.8500492285
0.8961828621
0.8104838778
0.8185039015
0.8106178337
0.8952189253
0.8894357701
0.8201359612
0.8724156910
0.8950540155
0.8968595374
0.8380864605
0.8098640427
0.8639545872
0.8662383143
0.8600840930
0.8961250577
0.8149338836
0.8111893632
0.8689645280
0.8961781636
0.8183308313
0.8127842027
0.8917457657
0.8781579406
0.8254193363
0.8948419700
0.8959028410
0.8193120874
0.8735060247