<VTKFile type="UnstructuredGrid" version="0.1">
	<UnstructuredGrid>
		<Piece NumberOfPoints="1862" NumberOfCells="3498">
			<CellData>
				<DataArray type="Int32" Name="type" NumberOfComponents="1" Format="ascii">
0
0
0
0
0
0
0
0
0
0
0
0
0
0
0
0
1
0
0
1
0
0
0
0
0
0
0
0
0
0
0
0
0
1
0
0
0
0
0
0
0
0
0
0
0
0
0
0
0
0
1
0
0
0
0
0
0
0
0
0
0
1
0
0
0
0
0
0
0
0
0
0
0
0
0
0
0
0
0
0
0
0
0
0
0
0
0
0
0
0
0
0
0
0
0
0
0
0
0
0
0
0
0
0
0
0
0
0
0
0
0
0
0
0
0
0
0
0
0
0
0
0
0
1
0
0
0
0
0
0
0
0
0
0
0
0
0
0
0
0
0
0
0
0
0
0
0
0
0
0
0
1
0
1
1
0
0
0
0
0
0
0
0
0
0
0
0
0
1
0
1
0
0
0
0
1
0
0
0
0
0
0
0
0
1
1
0
0
0
0
0
1
0
0
0
0
0
0
0
0
1
0
0
0
0
0
0
0
0
0
0
0
0
0
0
0
0
0
0
0
0
0
0
0
0
0
0
0
0
0
0
0
0
1
0
0
0
0
0
0
0
0
0
0
0
0
0
0
0
0
0
0
0
0
0
0
0
0
0
0
0
0
0
0
0
0
0
0
0
0
0
0
0
0
0
0
0
0
0
0
0
1
0
0
0
0
0
0
0
0
0
0
0
0
0
0
0
0
0
0
0
0
0
0
0
0
0
0
0
0
0
0
0
0
0
0
0
0
0
0
0
0
0
0
0
0
0
0
0
0
0
0
1
0
0
0
0
0
0
0
0
0
0
0
0
0
0
0
0
0
0
0
0
0
0
0
0
0
0
0
0
0
0
0
0
0
0
0
0
0
0
0
0
0
0
0
0
0
0
0
0
0
0
0
0
0
0
0
0
0
1
0
0
0
0
0
0
0
0
0
0
0
0
0
0
0
0
0
0
0
0
0
0
0
0
0
0
0
0
0
0
0
0
0
0
0
0
0
0
0
0
0
0
0
0
0
0
0
0
0
0
0
0
0
0
0
0
0
0
0
0
0
0
0
0
0
0
0
0
0
0
0
0
0
0
0
0
0
0
0
0
0
0
0
0
0
0
0
0
0
0
0
0
0
0
0
0
0
0
0
0
0
0
0
0
0
0
0
0
0
0
0
0
0
0
0
0
0
0
0
0
0
0
0
0
0
0
0
0
0
0
0
0
1
0
0
0
0
0
0
0
0
0
0
0
0
0
0
0
0
0
0
0
1
0
0
0
0
0
0
0
0
0
0
0
0
0
0
0
0
0
0
0
0
0
0
0
0
0
0
0
0
0
0
0
0
0
0
0
0
0
0
0
0
0
0
0
0
0
0
0
0
0
0
0
0
0
1
0
0
0
0
0
0
0
0
0
0
0
0
0
0
0
0
0
0
0
0
0
0
0
1
0
0
0
0
0
0
0
0
0
0
0
0
0
0
0
0
0
0
0
1
0
0
0
1
0
0
0
0
0
0
0
0
0
0
0
0
0
0
0
0
0
0
0
0
0
0
0
0
0
1
0
0
0
0
0
0
0
1
0
0
0
0
0
0
0
0
0
0
0
0
0
0
0
0
0
0
0
0
0
0
0
0
0
0
1
0
0
0
0
0
0
0
1
0
0
0
0
0
0
1
0
0
0
0
0
0
0
0
0
0
0
0
0
0
0
0
0
0
0
0
0
0
0
0
0
0
0
0
0
0
0
0
0
0
0
0
0
0
1
0
0
0
0
0
1
0
0
0
0
0
0
0
1
0
0
0
0
0
0
0
0
0
0
0
0
0
1
0
0
0
0
0
0
0
0
0
0
0
0
0
0
0
0
0
0
0
0
0
0
0
0
0
0
0
0
0
0
0
0
0
0
0
0
0
0
0
0
0
0
0
0
0
0
0
0
0
0
0
0
0
1
0
0
0
0
0
0
0
0
0
0
0
0
0
0
0
0
0
0
0
1
0
0
0
0
0
0
0
0
0
1
0
0
0
0
0
0
0
0
0
0
0
0
0
0
0
0
0
0
0
0
0
0
0
0
0
0
0
0
0
1
0
1
0
0
0
0
0
0
0
0
0
0
0
0
0
0
0
0
0
0
0
0
0
0
0
0
0
0
0
1
0
0
0
1
0
0
0
0
0
0
0
0
0
0
0
0
0
0
0
0
0
0
0
0
0
0
0
0
0
0
0
0
1
0
0
0
0
0
0
0
0
0
0
0
0
0
0
0
0
0
0
0
0
0
0
0
0
0
1
0
0
0
0
0
0
0
0
0
0
0
0
0
0
0
0
0
0
0
0
0
0
0
1
0
0
0
0
0
0
1
0
0
0
0
0
0
0
0
0
0
0
1
0
0
0
0
0
0
0
0
0
0
0
0
0
0
0
0
0
0
0
0
1
0
0
0
0
0
0
0
0
0
0
0
1
0
0
0
0
0
0
0
0
0
0
0
0
0
0
0
0
0
0
0
0
0
1
0
0
0
0
0
0
0
0
0
1
1
0
1
0
1
0
0
0
0
0
0
0
0
0
0
0
1
0
0
0
0
0
1
1
0
0
0
0
0
0
1
0
0
0
0
0
1
1
1
0
0
0
0
0
0
0
0
0
0
0
0
1
1
0
0
1
0
0
0
0
0
1
0
0
0
1
0
1
0
0
0
0
0
0
0
1
0
0
0
0
0
0
0
1
0
0
1
0
0
0
0
0
0
0
0
0
0
0
0
0
0
0
1
0
0
0
0
0
0
0
0
0
0
0
0
0
0
0
0
0
0
0
0
0
0
0
0
0
0
0
0
0
0
0
0
0
0
0
0
1
0
0
0
0
0
0
1
0
0
0
1
0
0
0
0
0
0
0
0
0
0
0
1
0
0
0
0
0
0
0
0
0
0
0
0
0
0
0
0
0
0
0
0
0
0
0
0
0
0
0
0
0
0
0
0
0
0
0
0
0
0
0
0
1
1
0
0
0
0
0
0
0
0
0
0
0
0
0
1
0
0
0
0
0
0
0
0
0
0
0
0
0
0
0
0
0
0
0
0
0
0
0
0
0
0
0
0
0
0
0
0
0
0
0
0
0
0
0
0
0
0
0
0
0
0
0
0
0
0
0
0
0
0
0
0
0
0
0
0
0
0
0
0
0
0
0
0
0
0
0
0
1
1
0
0
0
0
0
0
0
0
1
0
0
0
0
0
0
0
0
0
0
0
0
0
0
0
0
0
0
0
0
0
0
0
1
0
0
0
0
0
0
0
0
0
0
0
0
0
0
0
0
1
0
0
0
0
0
0
0
0
0
0
0
0
0
0
0
0
0
0
0
0
0
0
0
0
0
0
0
0
0
0
0
0
0
0
0
0
0
0
0
0
0
0
0
0
0
0
0
0
0
0
0
0
0
0
0
0
0
0
0
0
0
0
0
0
0
0
0
0
0
0
0
0
0
0
0
0
0
0
0
0
0
0
0
0
0
0
0
0
0
0
1
1
0
0
0
0
0
1
0
0
0
0
0
0
0
0
0
0
0
0
1
0
0
0
0
0
0
0
0
0
0
0
0
0
0
0
0
0
0
0
0
0
0
0
0
0
0
0
0
0
0
0
0
0
0
0
0
0
0
0
0
0
0
0
0
0
0
0
0
0
0
0
0
0
1
0
1
0
0
0
0
0
0
0
0
0
0
0
0
0
0
0
0
0
0
1
0
0
0
0
0
0
0
0
0
0
0
0
0
0
0
0
0
0
0
0
0
0
0
0
0
0
0
0
0
0
0
0
0
0
0
0
0
0
0
0
0
0
0
0
0
0
0
0
0
0
0
0
0
0
0
0
0
0
0
0
0
0
0
0
0
0
0
0
0
0
1
0
0
0
0
0
0
0
0
0
0
1
0
0
0
0
0
0
0
0
0
0
0
0
0
0
0
0
0
0
0
0
0
0
0
0
0
0
0
0
0
0
0
0
0
0
0
0
0
1
0
0
0
0
0
0
0
0
0
0
0
0
0
0
0
0
0
0
0
0
0
0
0
0
0
0
0
0
0
0
0
0
0
0
0
0
0
0
0
0
0
0
0
0
0
0
0
0
0
0
0
0
0
0
0
0
0
0
0
0
0
0
0
0
0
0
0
0
0
0
0
0
0
0
0
0
0
0
0
0
0
1
0
0
0
0
0
0
0
0
0
0
0
0
0
0
0
0
0
0
0
0
0
0
0
0
0
0
0
0
0
0
0
0
0
0
0
0
0
0
0
0
0
0
0
0
0
0
0
0
0
0
0
0
0
0
0
0
0
0
0
0
0
0
0
0
0
0
0
0
0
0
0
0
0
0
0
0
0
0
0
0
0
0
0
0
0
0
0
0
0
0
0
0
0
0
0
0
0
0
0
0
0
0
0
0
0
0
0
0
0
0
0
0
0
0
0
0
0
0
0
0
0
0
0
1
0
0
0
0
0
0
0
0
0
0
0
0
0
0
0
0
0
0
0
0
0
0
0
0
0
0
0
0
0
0
0
0
0
0
0
0
0
0
0
0
0
0
0
0
0
0
0
0
0
0
0
0
0
0
0
0
0
0
0
0
0
0
0
0
0
0
0
0
0
0
0
0
0
0
0
0
0
0
0
0
0
1
0
0
0
0
0
0
0
1
0
0
0
0
0
0
0
0
0
0
0
0
0
0
0
0
0
0
0
0
0
0
0
0
0
0
0
0
0
0
0
0
0
0
0
0
0
1
0
0
0
0
0
0
0
0
0
0
0
0
0
0
0
0
0
0
0
0
0
1
0
0
0
0
0
0
0
0
0
0
0
0
1
1
0
0
0
0
0
0
0
0
0
0
0
0
0
0
0
1
1
0
1
0
0
0
0
0
0
0
0
0
1
0
0
0
0
0
0
1
0
0
0
0
0
0
0
0
0
0
1
0
0
0
0
1
0
1
0
0
0
0
0
0
0
1
0
0
0
1
0
0
0
1
0
1
1
0
0
1
1
0
0
0
1
0
0
0
1
0
0
0
0
0
0
0
0
0
1
0
0
0
0
0
0
1
0
0
0
0
0
0
0
0
0
0
0
0
0
0
0
0
0
0
0
0
0
0
0
0
0
0
0
1
0
0
1
0
0
0
0
0
0
0
0
0
0
0
0
0
0
0
0
0
0
1
0
0
1
0
0
0
0
0
0
0
0
0
0
0
1
0
0
1
0
0
0
0
0
0
0
0
0
0
0
1
1
0
0
0
0
0
0
0
0
0
0
0
0
1
0
0
0
0
0
0
0
0
0
0
0
0
0
0
0
0
0
1
0
0
0
0
0
0
0
0
0
0
0
0
0
0
0
0
0
1
0
0
0
0
0
0
0
0
0
0
0
0
0
0
0
0
0
0
0
0
0
0
0
0
0
0
0
0
0
0
0
0
0
0
0
0
0
0
0
0
1
0
0
0
0
0
0
0
0
0
0
0
0
0
0
0
0
0
0
0
0
0
0
0
0
0
0
0
0
0
0
0
0
0
0
0
0
0
0
0
0
0
0
0
0
0
1
0
0
0
0
0
0
0
0
0
0
0
0
0
0
0
0
0
0
0
0
0
0
0
0
0
0
0
0
0
0
0
0
0
0
0
0
0
0
0
0
0
0
0
0
0
0
0
1
0
0
0
0
0
0
0
0
0
0
1
0
0
0
0
0
0
0
0
0
0
0
0
0
0
0
1
0
0
1
0
0
0
0
0
0
0
0
0
0
0
0
0
0
0
0
0
0
0
0
0
0
0
1
0
0
0
0
0
0
0
0
0
0
0
0
0
0
0
0
0
0
0
0
0
0
0
0
0
0
0
0
0
0
0
0
0
0
0
1
0
0
0
0
0
0
0
0
0
0
0
0
0
0
0
0
0
0
0
0
0
0
0
0
0
0
0
0
0
0
0
0
0
0
0
0
0
0
0
0
0
0
0
0
0
0
0
0
0
0
0
0
0
0
0
0
0
0
0
0
0
0
0
0
0
0
0
0
0
0
0
0
0
0
0
0
1
0
0
0
0
0
0
0
0
0
0
0
0
0
0
0
0
0
0
0
0
0
0
0
0
0
0
0
0
0
0
0
0
0
0
0
0
0
0
0
1
0
0
0
0
0
0
0
0
0
0
0
0
1
1
0
0
0
0
0
0
0
0
0
0
0
0
0
0
0
0
0
0
0
0
0
0
0
0
0
0
0
0
0
0
0
0
0
0
0
0
0
0
0
0
0
0
0
0
0
0
0
0
0
0
0
0
0
0
0
0
0
0
0
0
0
0
0
0
0
0
0
0
0
0
0
0
0
0
0
0
0
0
0
0
0
0
0
0
0
0
0
0
0
0
0
0
0
0
0
0
0
0
0
0
0
1
0
1
0
0
0
0
0
0
0
1
1
1
1
0
0
0
0
0
0
0
0
0
0
0
0
0
0
0
0
0
0
0
0
0
0
0
0
0
0
0
0
1
1
0
0
0
0
0
0
0
0
0
0
0
0
0
0
0
0
0
0
1
0
0
0
0
0
0
0
1
1
0
1
1
0
0
1
0
0
0
0
0
0
0
1
0
1
0
0
0
0
0
0
0
0
0
0
0
0
0
0
0
0
0
0
0
0
0
0
0
0
0
0
0
1
1
0
0
0
1
1
0
0
0
0
1
0
0
1
0
1
0
0
0
0
0
1
0
0
0
1
0
0
0
0
0
0
0
0
0
0
0
0
0
0
0
0
0
0
0
0
0
0
0
0
0
0
0
1
0
0
0
0
0
0
1
0
0
0
0
0
0
0
0
0
0
0
0
0
0
0
0
0
0
0
0
0
0
0
0
0
0
0
0
0
1
0
1
0
0
0
0
0
0
0
1
0
0
0
0
0
0
0
0
0
0
0
1
0
0
0
0
0
0
0
0
0
1
0
0
0
0
0
0
0
1
0
0
0
0
0
0
0
1
0
0
0
0
0
0
0
0
0
0
0
0
0
0
0
0
0
0
0
1
0
1
0
0
0
0
0
1
0
0
0
0
0
0
0
0
0
0
0
0
0
0
0
0
0
0
0
0
0
0
0
0
0
1
0
1
0
0
0
0
0
0
0
0
0
1
0
0
0
0
0
1
0
0
0
0
0
0
0
0
0
0
0
0
0
0
0
1
0
0
0
0
0
0
0
0
1
0
0
0
0
0
0
0
0
0
0
0
0
0
0
0
0
0
0
0
0
0
0
0
0
0
0
0
0
0
0
1
0
0
0
0
0
0
0
0
0
0
0
0
0
0
0
0
1
0
0
0
0
0
0
0
0
1
0
0
0
0
0
0
0
0
0
1
0
0
0
0
0
1
0
0
0
0
0
0
0
0
0
0
0
0
0
0
0
0
0
0
0
1
0
0
0
0
0
0
1
0
0
0
0
0
0
0
0
1
0
0
0
0
0
0
0
0
0
0
0
0
0
0
1
0
0
1
0
0
0
1
0
0
0
0
0
0
0
0
0
0
0
0
0
0
0
0
1
0
0
0
0
0
0
0
0
0
0
1
0
1
0
0
0
0
0
0
1
0
0
0
0
0
0
0
0
0
0
0
0
0
0
0
0
0
0
0
0
0
0
0
0
0
0
0
1
1
0
0
0
0
0
0
1
0
0
0
0
0
0
0
0
0
0
0
0
0
1
0
0
0
0
0
0
0
1
0
0
0
0
0
0
0
0
0
0
0
0
0
0
0
0
0
0
0
0
0
0
0
0
0
0
0
1
0
0
0
0
0
0
0
0
0
0
1
0
0
1
0
0
0
0
0
0
0
0
0
0
0
0
0
0
0
0
0
0
0
0
0
0
0
0
0
0
0
0
0
1
0
0
0
0
0
0
0
1
0
0
0
0
0
0
0
1
0
0
0
0
1
0
0
0
0
0
0
0
0
0
0
0
1
0
1
0
0
0
1
0
				</DataArray>
				<DataArray type="Float64" Name="h" NumberOfComponents="1" Format="ascii">
0.8471391276
0.8471081884
0.8469747919
0.8410571722
0.8503341966
0.8488833848
0.8459571418
0.8384282862
0.8452879134
0.8290923808
0.8374497091
0.8460156534
0.8438721684
0.8339098002
0.8417991711
0.8376647700
0.8423346318
0.8341302142
0.8468445232
0.8353334640
0.8481563369
0.8478511331
0.8522752754
0.8531305250
0.8384181532
0.8360194627
0.8525996895
0.8605115410
0.8540689268
0.8290469448
0.8307670945
0.8524740417
0.8468043985
0.8483055535
0.8605099182
0.8556441124
0.8525137803
0.8547026126
0.8589923010
0.8512323272
0.8537445760
0.8616096110
0.8537357928
0.8565762127
0.8549214099
0.8598376057
0.8555925271
0.8622545885
0.8826570997
0.8779027955
0.8534891682
0.8581933704
0.8567554182
0.8674250929
0.8600022746
0.8554953597
0.8598986034
0.8660689830
0.8701909899
0.8674133698
0.8738069480
0.8716852293
0.8827358775
0.8579912115
0.8585871170
0.8613063078
0.8723288461
0.8781184096
0.8705450535
0.8678283136
0.8682866321
0.8604157445
0.8558000563
0.8706897093
0.8707148697
0.8546692993
0.8680854893
0.8727963871
0.8646764013
0.8571817384
0.8774683717
0.8627990261
0.8913283932
0.8725312838
0.8562970054
0.8563343025
0.8788615485
0.8660563865
0.8744046576
0.8897631174
0.8813954767
0.8563745716
0.8754269390
0.8860246762
0.8597091498
0.8584951161
0.8607487863
0.8570654192
0.8591156954
0.8795435447
0.8894565585
0.8768479412
0.8642755266
0.8629022989
0.8197252628
0.8670240735
0.8556119653
0.8863933091
0.8746005562
0.8618144698
0.8819671573
0.8866290842
0.8778399187
0.8822601829
0.8692461043
0.8863180026
0.8660203539
0.8238842615
0.8850254959
0.8742427676
0.8200565486
0.8628378005
0.8529634030
0.8051640441
0.8785246492
0.8862040663
0.8703885852
0.8049069250
0.8847298318
0.8866502387
0.8839137532
0.8582751688
0.8747435547
0.8856533226
0.8197094533
0.8848927025
0.8277201008
0.8860455049
0.8808842584
0.8429388621
0.8058038202
0.8108820710
0.8839607942
0.8496757563
0.8550442032
0.8830771590
0.8352170615
0.8874005566
0.8106879748
0.8858987447
0.8236243120
0.8859592393
0.8857642839
0.8845859900
0.8799834649
0.8870199277
0.8859923403
0.8150816541
0.8856807915
0.7919502531
0.8478278050
0.8876680563
0.8320170386
0.8009704498
0.8102367246
0.8877460506
0.8539083455
0.8407685279
0.7950375144
0.8853562395
0.8860832337
0.7886189766
0.8846424186
0.8135348263
0.8556983049
0.8826163704
0.8529628877
0.8892412832
0.8837806216
0.8010412703
0.8879732653
0.8560331319
0.7919644986
0.8518094347
0.7874417922
0.7821337603
0.8557657005
0.8840260911
0.7916446972
0.7795881714
0.8548572505
0.8843552788
0.7853988721
0.8555875746
0.8826812419
0.8896580220
0.8071272061
0.8529507643
0.8541780980
0.8843092686
0.7789303038
0.8520943432
0.7811131978
0.8846063240
0.8508742619
0.7962361233
0.8389871803
0.8225959402
0.8520702959
0.8512681678
0.8540630726
0.7846909875
0.8028736980
0.7945475559
0.8306135916
0.8522885509
0.8460499317
0.8033812976
0.8549552780
0.7904630202
0.8503725440
0.8860467823
0.8542163817
0.8734221829
0.8513343362
0.8885765864
0.8921688219
0.8604463067
0.8498268206
0.8901835177
0.8863310625
0.8802116653
0.8549817768
0.8859003413
0.8906940885
0.8664658423
0.8532043890
0.8415572762
0.7886238953
0.8518759465
0.8532323887
0.8262289021
0.8022078582
0.8534423584
0.8269127085
0.8436519245
0.8006334824
0.8546820494
0.8339399085
0.8090248980
0.8476405141
0.8542700270
0.8085958206
0.8513569968
0.8517801404
0.8007225054
0.8496158410
0.8358141635
0.7945265751
0.8781610624
0.8541840166
0.8502904637
0.8574110388
0.8706370319
0.8526226331
0.8918196526
0.8913025622
0.8494540240
0.8862637186
0.8848010644
0.8933269101
0.8550037723
0.8897622401
0.8635558093
0.8708692214
0.8497997768
0.8527675228
0.8635167315
0.8780405834
0.8499629731
0.8926171918
0.8883807286
0.8893974722
0.8933783796
0.8901027604
0.8847319221
0.8573801582
0.8431078336
0.8064607359
0.8078688376
0.8452540448
0.8524055951
0.8292163193
0.8304844702
0.8522023344
0.8533460902
0.8533163086
0.8364140785
0.8140933638
0.8007030777
0.8066523426
0.8384737816
0.8535614967
0.8528059044
0.8512770691
0.8489026627
0.8538649691
0.8502329743
0.8138247787
0.8517268716
0.8607023567
0.8565509390
0.8881931823
0.8508333120
0.8939104945
0.8755397971
0.8536657903
0.8890240166
0.8939936544
0.8540264316
0.8687802124
0.8514911527
0.8834940255
0.8941883584
0.8530607448
0.8551231838
0.8619559562
0.8919343700
0.8679131411
0.8828918264
0.8931426680
0.8957641306
0.8909463154
0.8524889124
0.8762483268
0.8501269296
0.8896298605
0.8460249621
0.9023973186
0.8519512178
0.8548546269
0.8525128818
0.8117886228
0.8531106460
0.8322092063
0.8446668210
0.8332080836
0.8129130914
0.9010550750
0.8722436957
0.8555818346
0.8809974741
0.8401720382
0.8184518062
0.9063306578
0.8490177059
0.8807375466
0.8544073981
0.8501849385
0.8917051852
0.8918239436
0.9038258381
0.8066345640
0.8534242134
0.8532401078
0.8382815845
0.8747419094
0.8783737251
0.8734123355
0.8119845158
0.8840094045
0.9013709761
0.8184579997
0.8966554411
0.8737743970
0.8687458301
0.8962056825
0.8261634770
0.8943966680
0.8560101965
0.8547209226
0.8881239426
0.8905974995
0.8536180580
0.8829310214
0.8534294461
0.8531077705
0.8600968787
0.8583620085
0.8522166538
0.8935866292
0.8573294208
0.8664002774
0.8801652853
0.8978771374
0.8757476148
0.8279763860
0.8387549535
0.8430577215
0.8685417715
0.8561561405
0.8932256098
0.8630373114
0.8813330760
0.8745030638
0.8943735965
0.8894222551
0.8529461073
0.8554001408
0.8576668204
0.8627464636
0.8731750441
0.8824079603
0.8804754383
0.8462369624
0.9029853307
0.8945564331
0.8521996949
0.8861288682
0.8639440728
0.8814109766
0.8759797339
0.8350743676
0.8971233641
0.9065621455
0.8707352718
0.8992740437
0.8164164905
0.8966104425
0.8554656790
0.8718521131
0.9109009622
0.8876919408
0.9049962303
0.8815045645
0.8764992730
0.9146712462
0.8888839927
0.9001395329
0.8869485176
0.8880224314
0.9005547828
0.8415443398
0.9060280949
0.8919726975
0.8498664204
0.8644371756
0.8960214220
0.8760219398
0.9035952256
0.8956088002
0.8964572528
0.8119686595
0.8654796843
0.8544702385
0.8759811366
0.9153324741
0.9103402126
0.8898759554
0.9168254871
0.8222736092
0.8571281184
0.8462274729
0.8937184969
0.8535761141
0.8737618445
0.8666144842
0.8575425903
0.8748483722
0.8367957526
0.8980498177
0.8525498701
0.8878392357
0.8568078917
0.8605104178
0.8619040526
0.9248825990
0.8576563875
0.8202868388
0.8280010325
0.8312169356
0.8626214481
0.8417454774
0.8967384602
0.9297711591
0.9246576859
0.8934753830
0.8347322421
0.8671795244
0.8395648691
0.8985242291
0.8583603079
0.9303468429
0.8253738703
0.8279742796
0.8475307852
0.8497531094
0.9331339495
0.8809500912
0.8326882703
0.9184723814
0.9191079499
0.8524197807
0.8430581029
0.8685413260
0.8546643530
0.8587153216
0.8165328818
0.8666882116
0.9047992709
0.8347332753
0.8592553570
0.9083244543
0.8525469204
0.8908286836
0.8202748467
0.9038144105
0.8875199512
0.8207890929
0.8530445327
0.8592584250
0.8888919311
0.8942088301
0.9036070123
0.8457932740
0.9113136766
0.8323739286
0.8983632090
0.8857666258
0.8616663608
0.8995535103
0.8462366406
0.8923264548
0.8362944130
0.8367975777
0.8756244489
0.8253647625
0.8497522815
0.8165194221
0.8857662666
0.8626273208
0.8692755422
0.8450235222
0.8179768975
0.8561746919
0.8497059402
0.8300243819
0.8568080391
0.8628064730
0.8406017613
0.9166027331
0.8505123540
0.8412415134
0.8868928331
0.8250387116
0.8913216628
0.8652207504
0.8368288198
0.9075516119
0.9120161925
0.8587090999
0.8340543633
0.9103503311
0.8417539122
0.8816443896
0.8889197879
0.8546619742
0.8666251114
0.9091256301
0.8965042785
0.8559041538
0.9014433484
0.9153665378
0.9046860145
0.8639554062
0.8237060832
0.8674407850
0.8957403840
0.9083227897
0.8619785417
0.8503046387
0.8760512940
0.9184706586
0.8346000889
0.9007314653
0.8372627008
0.9001688133
0.8824456221
0.8644458193
0.8399657939
0.8993177060
0.8749535556
0.8476040297
0.8831265546
0.8432717027
0.8654922942
0.8662084147
0.8213581626
0.9304080995
0.8632487538
0.8803528329
0.8580684967
0.9252946359
0.8462150075
0.8707540210
0.8478220185
0.8658891347
0.9279539275
0.8945847845
0.8360960539
0.8596369564
0.8318558847
0.9249652680
0.8375340198
0.8957406812
0.8418186286
0.9114005609
0.8362928800
0.8559015979
0.8616670552
0.8457945027
0.9146913861
0.8950697306
0.8273397232
0.8207788701
0.8542064067
0.8372746493
0.9406526568
0.8250304398
0.8452802036
0.8658885492
0.8390513591
0.8493506831
0.8652231813
0.8530411548
0.8587081605
0.8412437150
0.9318114725
0.9432482929
0.9229077269
0.9059339599
0.8179652226
0.8603595515
0.8721339221
0.8644647862
0.9287594196
0.9212355866
0.8868926237
0.8537258620
0.9299277915
0.8384280915
0.8509567443
0.8258671406
0.8381243550
0.8375230592
0.8598481621
0.8694101590
0.8497030636
0.9260140397
0.8467877625
0.8232769450
0.8336554386
0.9171029307
0.9368353464
0.9443934475
0.9198428403
0.8367862819
0.8551886422
0.8295203897
0.8425062838
0.9396526904
0.9436433323
0.8756297569
0.8549609999
0.8711200262
0.8417969924
0.9339446518
0.8415675967
0.8446200532
0.9554898074
0.9515095601
0.8596077632
0.8553120464
0.9397210066
0.8510286746
0.8487975392
0.8399829309
0.9468687358
0.9518806558
0.9514135909
0.8462199934
0.8421581169
0.8381203402
0.8384836757
0.8408764362
0.9457648620
0.9519507862
0.9283855231
0.9376054901
0.8375645794
0.9565761211
0.9593743515
0.8371189276
0.9432480716
0.9362995872
0.8360995289
0.9614905531
0.8505135365
0.9497752390
0.8375984520
0.8409992793
0.9612135789
0.8375370403
0.9563008248
0.9501870278
0.8340554343
0.9443900960
0.8334681879
0.8345884297
0.9403176303
0.9382370469
0.8287201133
0.8482849380
0.8481667350
0.8481476408
0.8482542134
0.8436733421
0.8460278922
0.8374703063
0.8420130317
0.8511864448
0.8489032198
0.8503205389
0.8511633009
0.8452619965
0.8418260552
0.8459738639
0.8335448163
0.8419910908
0.8436562157
0.8403106903
0.8341481045
0.8410440754
0.8469623722
0.8468827577
0.8290619631
0.8386306754
0.8434004410
0.8384058023
0.8360160132
0.8384248216
0.8290787220
0.8434282232
0.8438440535
0.8510162962
0.8446077612
0.8507987183
0.8335258633
0.8307795337
0.8402872029
0.8483060693
0.8468248526
0.8525038523
0.8512407331
0.8512381903
0.8593158749
0.8423345458
0.8376610843
0.8537723110
0.8590041219
0.8433933843
0.8386170680
0.8537612734
0.8338928457
0.8353319630
0.8510076855
0.8522335853
0.8635199822
0.8478203613
0.8555594823
0.8434024430
0.8481522199
0.8507602965
0.8501949321
0.8615888821
0.8622436203
0.8445990616
0.8549233072
0.8534858179
0.8556309558
0.8604958415
0.8531222785
0.8540360117
0.8599056554
0.8585977141
0.8525728635
0.8558247657
0.8321838203
0.8593032610
0.8618691000
0.8578696696
0.8512192678
0.8567797205
0.8635329978
0.8820522951
0.8786458932
0.8501575690
0.8555593966
0.8579981914
0.8615806629
0.8556369727
0.8586133155
0.8546650280
0.8622015203
0.8605189923
0.8827181544
0.8780880368
0.8623757821
0.8525149803
0.8579955466
0.8618740695
0.8661325887
0.8666975794
0.8565363763
0.8706630122
0.8674315379
0.8604100537
0.8558205130
0.8696563880
0.8569722286
0.8570324127
0.8558287245
0.8725155190
0.8578771488
0.8616138448
0.8680694583
0.8682709487
0.8706944377
0.8706913212
0.8585769885
0.8572221939
0.8705327379
0.8582231342
0.8321738380
0.8678162706
0.8580013800
0.8622152366
0.8594517383
0.8623777557
0.8739705181
0.8644482149
0.8765343157
0.8826726803
0.8581795162
0.8786749756
0.8598161901
0.8627956880
0.8725026199
0.8642865542
0.8820753932
0.8779299813
0.8738153565
0.8716948022
0.8571970323
0.8749034896
0.8707140402
0.8702104840
0.8670504028
0.8674509111
0.8554291441
0.8572544930
0.8661494071
0.8582304488
0.8640738575
0.8600060842
0.8722307422
0.8696671601
0.8725263946
0.8554719584
0.8641376470
0.8697600559
0.8569538803
0.8674404497
0.8667156284
0.8674323265
0.8563670281
0.8660827462
0.8570116147
0.8754179255
0.8739903379
0.8628905706
0.8591210448
0.8642978261
0.8565540507
0.8644621005
0.8768440454
0.8708686570
0.8779031936
0.8688384034
0.8613058551
0.8894611688
0.8723544118
0.8619677212
0.8570973493
0.8759663742
0.8584927785
0.8647927233
0.8765735215
0.8795436006
0.8669948550
0.8594535913
0.8902769389
0.8641472806
0.8745813964
0.8866144136
0.8749126379
0.8697799221
0.8778266950
0.8640876998
0.8546921466
0.8805440946
0.8670697138
0.8728110782
0.8572399525
0.8797570361
0.8554842764
0.8819341583
0.8618141057
0.8722444131
0.8779123300
0.8902622345
0.8666315279
0.8759710301
0.8563505922
0.8628302664
0.8747325728
0.8619772570
0.8274631223
0.8648078848
0.8688521375
0.8563007541
0.8571906684
0.8788622715
0.8913128808
0.8774697165
0.8660149194
0.8646880527
0.8709075149
0.8200671237
0.8660812899
0.8565097983
0.8797554833
0.8582619670
0.8761075791
0.8249585857
0.8861919583
0.8777425115
0.8809714105
0.8744203158
0.8597213112
0.8860477474
0.8870445339
0.8897626538
0.8813969509
0.8858260344
0.8667561438
0.8785012504
0.8703661771
0.8805953304
0.8866624260
0.8642849029
0.8879273475
0.8741844181
0.8666410295
0.8274601588
0.8747513470
0.8821571592
0.8197217358
0.8849559839
0.8747245390
0.8197197571
0.8607793634
0.8550270072
0.8699062193
0.8108939751
0.8787068468
0.8249648615
0.8869949799
0.8822688404
0.8863981163
0.8291783387
0.8667661899
0.8809779942
0.8692625575
0.8107007412
0.8761541222
0.8839742268
0.8005735719
0.8862989677
0.8777595755
0.8830878069
0.8859325512
0.8556383509
0.8154676191
0.8534867109
0.8674418671
0.8861011590
0.8879207530
0.8821875535
0.8188114327
0.8852056022
0.8888097778
0.8813565321
0.8742655294
0.8742558315
0.8859783283
0.8238711146
0.8821659777
0.8850003338
0.8245487654
0.8236126519
0.8857836264
0.8799872854
0.8291954215
0.8005588536
0.8407644655
0.8102438843
0.8787382621
0.8854378056
0.8154538037
0.8016518542
0.8872408740
0.8642148648
0.8699565324
0.8051488308
0.8847153549
0.8478354013
0.8142059274
0.8529889855
0.8839048076
0.8210954003
0.8320046615
0.8838207503
0.8876853211
0.8048930441
0.8856972443
0.8813485554
0.8277374575
0.8856347443
0.8860639742
0.8616737497
0.8888008362
0.8864922832
0.8860253781
0.8846610036
0.8259077743
0.8199353632
0.8808780582
0.8245344948
0.8675168341
0.8188172196
0.8860812380
0.8535077807
0.8821562057
0.8853730253
0.8839129204
0.8851878749
0.8861024531
0.8135361415
0.8858955389
0.7919796510
0.8595328962
0.8141959546
0.8016398566
0.8893129364
0.8859353838
0.8850160709
0.8496590429
0.8873857987
0.8352241432
0.8010484377
0.8872237360
0.8210838530
0.8642589610
0.7969854903
0.8057961248
0.8879905917
0.8838064967
0.8529786197
0.8832986435
0.8429355708
0.8854188328
0.7957755890
0.7916619429
0.8869987344
0.8859736820
0.8199402282
0.8558464081
0.8860452413
0.8159286283
0.8258976591
0.8617255472
0.7874633847
0.8864705394
0.8845651960
0.8150750241
0.8838995585
0.8557797301
0.8544077314
0.8826971083
0.8538871196
0.7957632196
0.8892986465
0.8896719490
0.7969746644
0.8849987931
0.8832872418
0.8885358063
0.7876346547
0.8859157678
0.8595738371
0.7968863300
0.8843698972
0.8852311903
0.8009610701
0.8877301148
0.8555917937
0.8880721860
0.7919347910
0.8520599318
0.8831241120
0.7885991247
0.7811358703
0.8556859710
0.8846061356
0.8558849104
0.7950188230
0.7789538864
0.8159168761
0.8541586954
0.8830148698
0.8837655341
0.8075518799
0.7876157902
0.7968725577
0.7847123103
0.8880586226
0.8885219078
0.7974643203
0.8909404550
0.8560293715
0.8852146105
0.8826006667
0.8544416415
0.7835575711
0.7816234878
0.8892299507
0.8028794835
0.8520495771
0.8548611749
0.8863784287
0.8831087177
0.7795649621
0.8829992478
0.8854025286
0.8841061685
0.8518379141
0.7821110535
0.8840115931
0.8503517810
0.8006465805
0.8436542632
0.8132730301
0.8269034575
0.8529646114
0.7815997983
0.8504347807
0.7891532105
0.8534490657
0.8126389306
0.8075476812
0.8531991150
0.7853768982
0.7859168034
0.8909278700
0.8071247030
0.7913162471
0.8358056638
0.8179305533
0.8513444947
0.8496261655
0.8085980709
0.8546812870
0.7835344961
0.7886461793
0.7974535556
0.8871037256
0.8499179180
0.8508928200
0.8854209252
0.8846784924
0.8550084703
0.8841040995
0.8707679129
0.8499343187
0.8894018051
0.8926182773
0.8921515519
0.8573137388
0.8494342235
0.8897435812
0.8843260828
0.8780728465
0.8525869076
0.8862788539
0.8931497383
0.8918221616
0.8634684665
0.8540645868
0.8452527592
0.8174402747
0.7904428668
0.8533130399
0.8524004595
0.8126411174
0.8504506478
0.8132749573
0.7946760132
0.8505755612
0.8304788115
0.8064726385
0.7891340748
0.8512528564
0.8226051878
0.8389914137
0.7962183216
0.8549483640
0.8384685603
0.8138267386
0.7858934109
0.8502415333
0.8535607857
0.8033744398
0.8522999242
0.8512665356
0.8222161743
0.7973010108
0.8460426402
0.8179358068
0.8306253463
0.7912936919
0.8802728652
0.8540268043
0.8511868656
0.8501015380
0.8550808528
0.8678085410
0.8550264468
0.8931447936
0.8906853429
0.8919232615
0.8498549567
0.8858973592
0.8942869380
0.8828095173
0.8931270976
0.8542027587
0.8870588815
0.8901956396
0.8665394201
0.8734983096
0.8507829623
0.8514626409
0.8606299380
0.8754306836
0.8513743742
0.8921649269
0.8921437124
0.8881946832
0.8499299508
0.8885556468
0.8941779066
0.8889812250
0.8947993778
0.8860832171
0.8605216171
0.8460568923
0.8216745670
0.8021921486
0.7946600909
0.8118010525
0.8415582517
0.8532367033
0.8529911382
0.8332072273
0.8505550769
0.8262369315
0.8525062178
0.8531038749
0.8518717749
0.8174443023
0.8401584008
0.8184566436
0.7972798625
0.8033239694
0.8339466344
0.8542682007
0.8532161348
0.8263465715
0.8517910169
0.8222206606
0.8501840546
0.8534243925
0.8476300144
0.8090199937
0.8529205706
0.8636021269
0.8553747089
0.8883770098
0.8498319064
0.8931956108
0.8781313940
0.8534298223
0.8901344527
0.8948074118
0.8959176114
0.8943456854
0.8544738089
0.8541780113
0.8663223530
0.8528127072
0.8812451109
0.8933811695
0.8530865093
0.8574680732
0.8600487082
0.8913040393
0.8511913931
0.8959513348
0.8707352888
0.8848640574
0.8933378568
0.8961816473
0.8905810926
0.8546960514
0.8736777120
0.8503238085
0.8880660134
0.8942906228
0.9029588115
0.8718492880
0.8572882381
0.8861145371
0.8431146090
0.8216765267
0.9024509122
0.9046253291
0.8521998497
0.8777174255
0.8554597180
0.8522088805
0.8867209588
0.8971039162
0.9062183591
0.8078544571
0.8533509435
0.8530400925
0.8350793067
0.8462396816
0.8292201238
0.8731699462
0.8794560851
0.8764954521
0.8164296148
0.8795901966
0.8967404091
0.8251978826
0.9011245954
0.8693736588
0.8571162462
0.8809550756
0.8364239512
0.8140876388
0.8997033913
0.9068703472
0.8498521915
0.8780331692
0.8544701898
0.8488763819
0.8922831440
0.8925753807
0.9035729753
0.8033046768
0.8538645214
0.8528135452
0.8285705650
0.8415585216
0.8263471164
0.8718374426
0.8808541125
0.8720735078
0.8089329536
0.8826220466
0.9012907732
0.8222819127
0.8558147517
0.8966979130
0.8600942439
0.8763485821
0.8786684143
0.8972671543
0.8671369773
0.8957816016
0.8280045157
0.8283505356
0.8423863843
0.8934406527
0.8395642195
0.8660978107
0.8583392727
0.8959716059
0.8525226079
0.8655615428
0.8896783891
0.8761588032
0.8909534645
0.8535786100
0.8808830553
0.8536645562
0.8530908372
0.8620255517
0.8542908231
0.8586995467
0.8524188079
0.8936828986
0.8604920850
0.8688744195
0.8803528774
0.8980183346
0.8736998824
0.8959346520
0.8257891335
0.8265480332
0.8389302405
0.8970027418
0.8430970523
0.8689700709
0.8575244200
0.8939355065
0.8545123603
0.8632491446
0.8835745910
0.8748482274
0.8940110732
0.8877857088
0.8517520176
0.8565952440
0.8576558669
0.8618803298
0.8702693153
0.9098007739
0.8838722183
0.8988296855
0.8875187800
0.8777196962
0.8888915029
0.8964285975
0.8446403641
0.9027866434
0.9022207218
0.8954197052
0.9027594475
0.8909283529
0.8519545160
0.8868247873
0.8619247774
0.8794578720
0.8698240763
0.8737219839
0.8929796468
0.8322071481
0.8976073881
0.9062481206
0.8710716454
0.9075459857
0.8868009469
0.8995532684
0.8993477127
0.8128994848
0.8643096561
0.8967544440
0.8548588315
0.8747444165
0.8814097612
0.9165862424
0.9120015049
0.8698265649
0.8923285499
0.9116661371
0.8867274483
0.9046434283
0.9156542053
0.8251953512
0.8573069399
0.8795900211
0.8757668219
0.9065330594
0.8722502526
0.9129692704
0.8902088438
0.8966027268
0.9000797322
0.8859577487
0.8783761696
0.8858649310
0.8988325777
0.8382791445
0.9024863719
0.9075316987
0.8985238104
0.8925922593
0.8490300839
0.8918437842
0.8629010024
0.8802760787
0.8802751255
0.8943185842
0.8285655324
0.9010770450
0.9063559045
0.8772317557
0.9024981122
0.8941823257
0.8965080051
0.8089159701
0.8626985194
0.8815060375
0.8917158229
0.8544059909
0.8737240543
0.9146711857
0.9094996882
0.8734151004
0.8878219136
0.9089938473
0.8826240983
0.9013076528
0.9182478453
0.8184496752
0.8555932579
0.8780315686
0.8810070608
0.8450221873
0.8936077445
0.9249648236
0.9252885890
0.8970290472
0.8536154580
0.8312150171
0.8758286152
0.8430981831
0.9014425165
0.8660957067
0.8561751155
0.8745022435
0.9304006873
0.8280328922
0.8283480921
0.8343217619
0.8979069139
0.8486588988
0.8521339174
0.9299248028
0.8894756681
0.8351063392
0.9131254250
0.9223604421
0.8558154565
0.8387546281
0.8707706387
0.8707704722
0.8560768945
0.8573513014
0.8627876766
0.9231834836
0.8576680004
0.8726289316
0.8172193960
0.8261583710
0.8674331252
0.9017915962
0.8312432598
0.8357462589
0.8600592282
0.8299358747
0.9114751440
0.8400788153
0.8966883039
0.9279527359
0.9226462161
0.8944286337
0.8338565507
0.8688112271
0.8389305374
0.8984159755
0.8560303048
0.8726309559
0.9287502487
0.8221019164
0.8265441142
0.8307859233
0.8972935378
0.8476027816
0.8490866555
0.9307312489
0.8830066871
0.8312418289
0.9171728688
0.9174770787
0.8522177018
0.8423862860
0.8689695846
0.8511960368
0.8542665391
0.8601123045
0.8583857885
0.9225651409
0.8542916081
0.8138502271
0.8257836994
0.8380570102
0.8630286095
0.9052736137
0.8293600111
0.8351069710
0.8577398271
0.9066437222
0.8780906716
0.8280268237
0.8521309596
0.8909291519
0.8172069577
0.9022201260
0.8869494242
0.8630380112
0.8646216697
0.8858423655
0.8418640826
0.8233913558
0.8520464436
0.9110068400
0.8534805076
0.8864128345
0.8303803246
0.8577419251
0.8658481227
0.8864117993
0.8720789461
0.8929808722
0.8440304918
0.8975852161
0.8997496242
0.8908283323
0.8718424721
0.9110242903
0.8538234186
0.8463295064
0.9098030704
0.8926018639
0.8884779263
0.8317406835
0.8702628554
0.8301882863
0.8964265078
0.8840100376
0.8856387755
0.8877688374
0.9049805662
0.8695299237
0.8352794172
0.9024410891
0.9172471211
0.8808561645
0.8984169748
0.9178700946
0.8642556546
0.8363598048
0.8984194659
0.9066267964
0.8450329272
0.8774526639
0.8905544173
0.8374926499
0.8343166943
0.9013835372
0.8740472844
0.8220921763
0.8490919025
0.8893887976
0.8138359271
0.8988304305
0.8856391419
0.8983642482
0.8600649390
0.8676806304
0.8880239720
0.8450922078
0.8202661637
0.8553111414
0.8500749538
0.8308443004
0.8560754241
0.8612927294
0.8804729985
0.8898743904
0.8919737633
0.8409973816
0.9038562142
0.9113129674
0.9116857339
0.8498499914
0.8420834886
0.9060287701
0.8851288339
0.8321608773
0.8277104818
0.8943185032
0.9178564395
0.8893890897
0.8893984489
0.8687395587
0.8375967209
0.9129746011
0.9168381930
0.8604313406
0.8346892412
0.9035974950
0.9156625483
0.8400809715
0.8798972399
0.8956080526
0.8323234875
0.8307790129
0.8902519875
0.8542627049