<VTKFile type="UnstructuredGrid" version="0.1">
	<UnstructuredGrid>
		<Piece NumberOfPoints="1862" NumberOfCells="3498">
			<CellData>
				<DataArray type="Int32" Name="type" NumberOfComponents="1" Format="ascii">
0
0
0
0
0
0
0
0
0
0
0
0
0
0
0
0
1
0
0
1
0
0
0
0
0
0
0
0
0
0
0
0
0
1
0
0
0
0
0
0
0
0
0
0
0
0
0
0
0
0
1
0
0
0
0
0
0
0
0
0
0
1
0
0
0
0
0
0
0
0
0
0
0
0
0
0
0
0
0
0
0
0
0
0
0
0
0
0
0
0
0
0
0
0
0
0
0
0
0
0
0
0
0
0
0
0
0
0
0
0
0
0
0
0
0
0
0
0
0
0
0
0
0
1
0
0
0
0
0
0
0
0
0
0
0
0
0
0
0
0
0
0
0
0
0
0
0
0
0
0
0
1
0
1
1
0
0
0
0
0
0
0
0
0
0
0
0
0
1
0
1
0
0
0
0
1
0
0
0
0
0
0
0
0
1
1
0
0
0
0
0
1
0
0
0
0
0
0
0
0
1
0
0
0
0
0
0
0
0
0
0
0
0
0
0
0
0
0
0
0
0
0
0
0
0
0
0
0
0
0
0
0
0
1
0
0
0
0
0
0
0
0
0
0
0
0
0
0
0
0
0
0
0
0
0
0
0
0
0
0
0
0
0
0
0
0
0
0
0
0
0
0
0
0
0
0
0
0
0
0
0
1
0
0
0
0
0
0
0
0
0
0
0
0
0
0
0
0
0
0
0
0
0
0
0
0
0
0
0
0
0
0
0
0
0
0
0
0
0
0
0
0
0
0
0
0
0
0
0
0
0
0
1
0
0
0
0
0
0
0
0
0
0
0
0
0
0
0
0
0
0
0
0
0
0
0
0
0
0
0
0
0
0
0
0
0
0
0
0
0
0
0
0
0
0
0
0
0
0
0
0
0
0
0
0
0
0
0
0
0
1
0
0
0
0
0
0
0
0
0
0
0
0
0
0
0
0
0
0
0
0
0
0
0
0
0
0
0
0
0
0
0
0
0
0
0
0
0
0
0
0
0
0
0
0
0
0
0
0
0
0
0
0
0
0
0
0
0
0
0
0
0
0
0
0
0
0
0
0
0
0
0
0
0
0
0
0
0
0
0
0
0
0
0
0
0
0
0
0
0
0
0
0
0
0
0
0
0
0
0
0
0
0
0
0
0
0
0
0
0
0
0
0
0
0
0
0
0
0
0
0
0
0
0
0
0
0
0
0
0
0
0
0
1
0
0
0
0
0
0
0
0
0
0
0
0
0
0
0
0
0
0
0
1
0
0
0
0
0
0
0
0
0
0
0
0
0
0
0
0
0
0
0
0
0
0
0
0
0
0
0
0
0
0
0
0
0
0
0
0
0
0
0
0
0
0
0
0
0
0
0
0
0
0
0
0
0
1
0
0
0
0
0
0
0
0
0
0
0
0
0
0
0
0
0
0
0
0
0
0
0
1
0
0
0
0
0
0
0
0
0
0
0
0
0
0
0
0
0
0
0
1
0
0
0
1
0
0
0
0
0
0
0
0
0
0
0
0
0
0
0
0
0
0
0
0
0
0
0
0
0
1
0
0
0
0
0
0
0
1
0
0
0
0
0
0
0
0
0
0
0
0
0
0
0
0
0
0
0
0
0
0
0
0
0
0
1
0
0
0
0
0
0
0
1
0
0
0
0
0
0
1
0
0
0
0
0
0
0
0
0
0
0
0
0
0
0
0
0
0
0
0
0
0
0
0
0
0
0
0
0
0
0
0
0
0
0
0
0
0
1
0
0
0
0
0
1
0
0
0
0
0
0
0
1
0
0
0
0
0
0
0
0
0
0
0
0
0
1
0
0
0
0
0
0
0
0
0
0
0
0
0
0
0
0
0
0
0
0
0
0
0
0
0
0
0
0
0
0
0
0
0
0
0
0
0
0
0
0
0
0
0
0
0
0
0
0
0
0
0
0
0
1
0
0
0
0
0
0
0
0
0
0
0
0
0
0
0
0
0
0
0
1
0
0
0
0
0
0
0
0
0
1
0
0
0
0
0
0
0
0
0
0
0
0
0
0
0
0
0
0
0
0
0
0
0
0
0
0
0
0
0
1
0
1
0
0
0
0
0
0
0
0
0
0
0
0
0
0
0
0
0
0
0
0
0
0
0
0
0
0
0
1
0
0
0
1
0
0
0
0
0
0
0
0
0
0
0
0
0
0
0
0
0
0
0
0
0
0
0
0
0
0
0
0
1
0
0
0
0
0
0
0
0
0
0
0
0
0
0
0
0
0
0
0
0
0
0
0
0
0
1
0
0
0
0
0
0
0
0
0
0
0
0
0
0
0
0
0
0
0
0
0
0
0
1
0
0
0
0
0
0
1
0
0
0
0
0
0
0
0
0
0
0
1
0
0
0
0
0
0
0
0
0
0
0
0
0
0
0
0
0
0
0
0
1
0
0
0
0
0
0
0
0
0
0
0
1
0
0
0
0
0
0
0
0
0
0
0
0
0
0
0
0
0
0
0
0
0
1
0
0
0
0
0
0
0
0
0
1
1
0
1
0
1
0
0
0
0
0
0
0
0
0
0
0
1
0
0
0
0
0
1
1
0
0
0
0
0
0
1
0
0
0
0
0
1
1
1
0
0
0
0
0
0
0
0
0
0
0
0
1
1
0
0
1
0
0
0
0
0
1
0
0
0
1
0
1
0
0
0
0
0
0
0
1
0
0
0
0
0
0
0
1
0
0
1
0
0
0
0
0
0
0
0
0
0
0
0
0
0
0
1
0
0
0
0
0
0
0
0
0
0
0
0
0
0
0
0
0
0
0
0
0
0
0
0
0
0
0
0
0
0
0
0
0
0
0
0
1
0
0
0
0
0
0
1
0
0
0
1
0
0
0
0
0
0
0
0
0
0
0
1
0
0
0
0
0
0
0
0
0
0
0
0
0
0
0
0
0
0
0
0
0
0
0
0
0
0
0
0
0
0
0
0
0
0
0
0
0
0
0
0
1
1
0
0
0
0
0
0
0
0
0
0
0
0
0
1
0
0
0
0
0
0
0
0
0
0
0
0
0
0
0
0
0
0
0
0
0
0
0
0
0
0
0
0
0
0
0
0
0
0
0
0
0
0
0
0
0
0
0
0
0
0
0
0
0
0
0
0
0
0
0
0
0
0
0
0
0
0
0
0
0
0
0
0
0
0
0
0
1
1
0
0
0
0
0
0
0
0
1
0
0
0
0
0
0
0
0
0
0
0
0
0
0
0
0
0
0
0
0
0
0
0
1
0
0
0
0
0
0
0
0
0
0
0
0
0
0
0
0
1
0
0
0
0
0
0
0
0
0
0
0
0
0
0
0
0
0
0
0
0
0
0
0
0
0
0
0
0
0
0
0
0
0
0
0
0
0
0
0
0
0
0
0
0
0
0
0
0
0
0
0
0
0
0
0
0
0
0
0
0
0
0
0
0
0
0
0
0
0
0
0
0
0
0
0
0
0
0
0
0
0
0
0
0
0
0
0
0
0
0
1
1
0
0
0
0
0
1
0
0
0
0
0
0
0
0
0
0
0
0
1
0
0
0
0
0
0
0
0
0
0
0
0
0
0
0
0
0
0
0
0
0
0
0
0
0
0
0
0
0
0
0
0
0
0
0
0
0
0
0
0
0
0
0
0
0
0
0
0
0
0
0
0
0
1
0
1
0
0
0
0
0
0
0
0
0
0
0
0
0
0
0
0
0
0
1
0
0
0
0
0
0
0
0
0
0
0
0
0
0
0
0
0
0
0
0
0
0
0
0
0
0
0
0
0
0
0
0
0
0
0
0
0
0
0
0
0
0
0
0
0
0
0
0
0
0
0
0
0
0
0
0
0
0
0
0
0
0
0
0
0
0
0
0
0
0
1
0
0
0
0
0
0
0
0
0
0
1
0
0
0
0
0
0
0
0
0
0
0
0
0
0
0
0
0
0
0
0
0
0
0
0
0
0
0
0
0
0
0
0
0
0
0
0
0
1
0
0
0
0
0
0
0
0
0
0
0
0
0
0
0
0
0
0
0
0
0
0
0
0
0
0
0
0
0
0
0
0
0
0
0
0
0
0
0
0
0
0
0
0
0
0
0
0
0
0
0
0
0
0
0
0
0
0
0
0
0
0
0
0
0
0
0
0
0
0
0
0
0
0
0
0
0
0
0
0
0
1
0
0
0
0
0
0
0
0
0
0
0
0
0
0
0
0
0
0
0
0
0
0
0
0
0
0
0
0
0
0
0
0
0
0
0
0
0
0
0
0
0
0
0
0
0
0
0
0
0
0
0
0
0
0
0
0
0
0
0
0
0
0
0
0
0
0
0
0
0
0
0
0
0
0
0
0
0
0
0
0
0
0
0
0
0
0
0
0
0
0
0
0
0
0
0
0
0
0
0
0
0
0
0
0
0
0
0
0
0
0
0
0
0
0
0
0
0
0
0
0
0
0
0
1
0
0
0
0
0
0
0
0
0
0
0
0
0
0
0
0
0
0
0
0
0
0
0
0
0
0
0
0
0
0
0
0
0
0
0
0
0
0
0
0
0
0
0
0
0
0
0
0
0
0
0
0
0
0
0
0
0
0
0
0
0
0
0
0
0
0
0
0
0
0
0
0
0
0
0
0
0
0
0
0
0
1
0
0
0
0
0
0
0
1
0
0
0
0
0
0
0
0
0
0
0
0
0
0
0
0
0
0
0
0
0
0
0
0
0
0
0
0
0
0
0
0
0
0
0
0
0
1
0
0
0
0
0
0
0
0
0
0
0
0
0
0
0
0
0
0
0
0
0
1
0
0
0
0
0
0
0
0
0
0
0
0
1
1
0
0
0
0
0
0
0
0
0
0
0
0
0
0
0
1
1
0
1
0
0
0
0
0
0
0
0
0
1
0
0
0
0
0
0
1
0
0
0
0
0
0
0
0
0
0
1
0
0
0
0
1
0
1
0
0
0
0
0
0
0
1
0
0
0
1
0
0
0
1
0
1
1
0
0
1
1
0
0
0
1
0
0
0
1
0
0
0
0
0
0
0
0
0
1
0
0
0
0
0
0
1
0
0
0
0
0
0
0
0
0
0
0
0
0
0
0
0
0
0
0
0
0
0
0
0
0
0
0
1
0
0
1
0
0
0
0
0
0
0
0
0
0
0
0
0
0
0
0
0
0
1
0
0
1
0
0
0
0
0
0
0
0
0
0
0
1
0
0
1
0
0
0
0
0
0
0
0
0
0
0
1
1
0
0
0
0
0
0
0
0
0
0
0
0
1
0
0
0
0
0
0
0
0
0
0
0
0
0
0
0
0
0
1
0
0
0
0
0
0
0
0
0
0
0
0
0
0
0
0
0
1
0
0
0
0
0
0
0
0
0
0
0
0
0
0
0
0
0
0
0
0
0
0
0
0
0
0
0
0
0
0
0
0
0
0
0
0
0
0
0
0
1
0
0
0
0
0
0
0
0
0
0
0
0
0
0
0
0
0
0
0
0
0
0
0
0
0
0
0
0
0
0
0
0
0
0
0
0
0
0
0
0
0
0
0
0
0
1
0
0
0
0
0
0
0
0
0
0
0
0
0
0
0
0
0
0
0
0
0
0
0
0
0
0
0
0
0
0
0
0
0
0
0
0
0
0
0
0
0
0
0
0
0
0
0
1
0
0
0
0
0
0
0
0
0
0
1
0
0
0
0
0
0
0
0
0
0
0
0
0
0
0
1
0
0
1
0
0
0
0
0
0
0
0
0
0
0
0
0
0
0
0
0
0
0
0
0
0
0
1
0
0
0
0
0
0
0
0
0
0
0
0
0
0
0
0
0
0
0
0
0
0
0
0
0
0
0
0
0
0
0
0
0
0
0
1
0
0
0
0
0
0
0
0
0
0
0
0
0
0
0
0
0
0
0
0
0
0
0
0
0
0
0
0
0
0
0
0
0
0
0
0
0
0
0
0
0
0
0
0
0
0
0
0
0
0
0
0
0
0
0
0
0
0
0
0
0
0
0
0
0
0
0
0
0
0
0
0
0
0
0
0
1
0
0
0
0
0
0
0
0
0
0
0
0
0
0
0
0
0
0
0
0
0
0
0
0
0
0
0
0
0
0
0
0
0
0
0
0
0
0
0
1
0
0
0
0
0
0
0
0
0
0
0
0
1
1
0
0
0
0
0
0
0
0
0
0
0
0
0
0
0
0
0
0
0
0
0
0
0
0
0
0
0
0
0
0
0
0
0
0
0
0
0
0
0
0
0
0
0
0
0
0
0
0
0
0
0
0
0
0
0
0
0
0
0
0
0
0
0
0
0
0
0
0
0
0
0
0
0
0
0
0
0
0
0
0
0
0
0
0
0
0
0
0
0
0
0
0
0
0
0
0
0
0
0
0
0
1
0
1
0
0
0
0
0
0
0
1
1
1
1
0
0
0
0
0
0
0
0
0
0
0
0
0
0
0
0
0
0
0
0
0
0
0
0
0
0
0
0
1
1
0
0
0
0
0
0
0
0
0
0
0
0
0
0
0
0
0
0
1
0
0
0
0
0
0
0
1
1
0
1
1
0
0
1
0
0
0
0
0
0
0
1
0
1
0
0
0
0
0
0
0
0
0
0
0
0
0
0
0
0
0
0
0
0
0
0
0
0
0
0
0
1
1
0
0
0
1
1
0
0
0
0
1
0
0
1
0
1
0
0
0
0
0
1
0
0
0
1
0
0
0
0
0
0
0
0
0
0
0
0
0
0
0
0
0
0
0
0
0
0
0
0
0
0
0
1
0
0
0
0
0
0
1
0
0
0
0
0
0
0
0
0
0
0
0
0
0
0
0
0
0
0
0
0
0
0
0
0
0
0
0
0
1
0
1
0
0
0
0
0
0
0
1
0
0
0
0
0
0
0
0
0
0
0
1
0
0
0
0
0
0
0
0
0
1
0
0
0
0
0
0
0
1
0
0
0
0
0
0
0
1
0
0
0
0
0
0
0
0
0
0
0
0
0
0
0
0
0
0
0
1
0
1
0
0
0
0
0
1
0
0
0
0
0
0
0
0
0
0
0
0
0
0
0
0
0
0
0
0
0
0
0
0
0
1
0
1
0
0
0
0
0
0
0
0
0
1
0
0
0
0
0
1
0
0
0
0
0
0
0
0
0
0
0
0
0
0
0
1
0
0
0
0
0
0
0
0
1
0
0
0
0
0
0
0
0
0
0
0
0
0
0
0
0
0
0
0
0
0
0
0
0
0
0
0
0
0
0
1
0
0
0
0
0
0
0
0
0
0
0
0
0
0
0
0
1
0
0
0
0
0
0
0
0
1
0
0
0
0
0
0
0
0
0
1
0
0
0
0
0
1
0
0
0
0
0
0
0
0
0
0
0
0
0
0
0
0
0
0
0
1
0
0
0
0
0
0
1
0
0
0
0
0
0
0
0
1
0
0
0
0
0
0
0
0
0
0
0
0
0
0
1
0
0
1
0
0
0
1
0
0
0
0
0
0
0
0
0
0
0
0
0
0
0
0
1
0
0
0
0
0
0
0
0
0
0
1
0
1
0
0
0
0
0
0
1
0
0
0
0
0
0
0
0
0
0
0
0
0
0
0
0
0
0
0
0
0
0
0
0
0
0
0
1
1
0
0
0
0
0
0
1
0
0
0
0
0
0
0
0
0
0
0
0
0
1
0
0
0
0
0
0
0
1
0
0
0
0
0
0
0
0
0
0
0
0
0
0
0
0
0
0
0
0
0
0
0
0
0
0
0
1
0
0
0
0
0
0
0
0
0
0
1
0
0
1
0
0
0
0
0
0
0
0
0
0
0
0
0
0
0
0
0
0
0
0
0
0
0
0
0
0
0
0
0
1
0
0
0
0
0
0
0
1
0
0
0
0
0
0
0
1
0
0
0
0
1
0
0
0
0
0
0
0
0
0
0
0
1
0
1
0
0
0
1
0
				</DataArray>
				<DataArray type="Float64" Name="h" NumberOfComponents="1" Format="ascii">
0.8749966006
0.8750410378
0.8702846988
0.8757996711
0.8696841191
0.8713356975
0.8729982388
0.8779061632
0.8755821149
0.8807862011
0.8781620456
0.8714318252
0.8714274903
0.8804822584
0.8755009372
0.8670117903
0.8736750588
0.8772332920
0.8701170537
0.8787067718
0.8646524148
0.8655746267
0.8650656236
0.8668389536
0.8756912081
0.8706029799
0.8528884907
0.8494998232
0.8667485246
0.8819003477
0.8801331649
0.8690733748
0.8607202147
0.8682347737
0.8581383874
0.8655359016
0.8586761160
0.8560504629
0.8407777380
0.8652153644
0.8684460674
0.8581411360
0.8589499531
0.8598258705
0.8652808780
0.8542458359
0.8618939644
0.8574952649
0.8915782248
0.8754277071
0.8622873346
0.8618927689
0.8638562434
0.8583986228
0.8614993723
0.8469655194
0.8588661715
0.8574843908
0.8630532227
0.8604766551
0.8657188983
0.8612988231
0.8914372701
0.8638129068
0.8547458917
0.8449049300
0.8587953763
0.8767829913
0.8622308131
0.8582371763
0.8602657001
0.8616593714
0.8436492910
0.8628751886
0.8641383406
0.8071272393
0.8590932367
0.8667856700
0.8561192341
0.8262177478
0.8753366311
0.8466237833
0.9336467393
0.8613837205
0.8203185775
0.8176510237
0.8817749466
0.8438478923
0.8712561377
0.9148149480
0.8898740403
0.8180237499
0.8717435664
0.8962007398
0.8307443169
0.8288557249
0.8252843160
0.8270316366
0.8356570742
0.8834847538
0.9212518152
0.8756777491
0.8444635541
0.8549364985
0.8810503544
0.8423314321
0.8079755456
0.9030591227
0.8697170112
0.8403833384
0.8842575015
0.9029358850
0.8796205701
0.8918447034
0.8568531026
0.9247441013
0.8512336707
0.8834532492
0.9085513133
0.8686526347
0.8835939585
0.8363613666
0.7947238144
0.8903577240
0.8816523761
0.9076323484
0.8613656493
0.8896854411
0.9161419163
0.9269021941
0.9050874980
0.8216187609
0.8714013093
0.9282322742
0.8848926838
0.9049682026
0.8705134770
0.9363550333
0.8898824789
0.8579444446
0.8882351804
0.8882518219
0.9133324638
0.8502636681
0.8073510915
0.8968877265
0.8636321577
0.9731828732
0.8878780408
1.0015466791
0.8718499593
0.9394134964
0.9484819303
1.0011707426
0.8825677899
0.9452092188
0.9774846637
0.8833432813
0.9959840151
0.8924034120
0.8533367866
0.9695035163
0.8655721264
0.8880907067
0.8863238357
0.9465750807
0.8405991095
0.8611594284
0.8938776989
0.9552011313
0.9650800145
0.8953428068
0.9931712957
0.8822671064
0.8329785543
1.0317680011
0.8441541259
0.9806254401
1.0205041366
0.8867794982
0.9403535852
0.8196108308
0.8907282260
0.7821755800
0.8948214774
0.9000448303
0.8290996741
1.0149222227
0.8953547833
0.9028544464
0.8047246110
1.0149767887
0.8949104314
0.8156206525
1.0280680019
0.9679254465
0.8809912700
0.7889043700
0.8008552402
1.0190514470
0.9038087546
0.7821806392
0.9011115502
1.0188171577
0.7724665360
0.8843110397
0.8566917680
0.8693973070
0.7851377780
0.8388917455
0.7974599698
0.8970540514
0.8829408310
0.8858865147
0.8632878461
0.7804041678
0.8486237152
0.8798603417
0.8131950194
0.8896856939
0.7694697182
0.8950181411
0.8271096002
0.8504684715
0.7696227210
1.0032435378
0.9361755710
0.8073801272
0.7569235094
0.9154752596
1.0125610089
0.8732083097
0.7872874173
1.0158895306
0.9853305526
0.8283437231
0.7857576215
0.8478937602
0.8914551569
0.8268843461
0.7801189976
0.8624308621
0.8783364920
0.8313990242
0.8651724216
0.8519138159
0.8815620781
0.8027202459
0.8557448325
0.8735674542
0.8383362887
0.7975097534
0.8766836599
0.7679659356
0.7619137330
0.8799183945
0.8425636592
0.8592408725
0.8859186274
0.8633387053
0.8132515228
0.7450921317
0.7843636725
0.8348995219
0.7717238640
0.9718984717
0.9935113116
0.7469264963
1.0087741540
0.8864742218
0.9304462647
0.8180624358
0.9080589252
0.8144179463
0.8390438142
0.7357413468
0.7622032459
0.8088377061
0.8613505038
0.7566261441
0.9278306019
1.0052271354
0.9931904960
0.9766163756
0.9092644399
0.8867192174
0.7923387130
0.8385567965
0.8750599844
0.8717712743
0.8419267309
0.7684843094
0.8548055585
0.8579406570
0.8150744124
0.7656365890
0.8183438849
0.8474692309
0.8666314315
0.8799450223
0.8731255751
0.8507399379
0.7865593261
0.7477829013
0.7502549339
0.8278335805
0.7835105111
0.8311619508
0.8697907698
0.7275419667
0.7928174807
0.7630459581
0.9977572030
0.7295568489
0.9265228537
0.8500370816
0.8002106341
0.9015907267
0.9851474879
0.8033827544
0.8204293323
0.7481792461
0.8794610425
0.9638833329
0.7415202639
0.7675196665
0.7904813343
0.9841014304
0.8216763478
0.8772267825
0.9228351273
0.9686976782
0.9942741509
0.7215880621
0.8507480658
0.7352799606
0.9047519326
0.8317277360
0.9501287683
0.8045682664
0.7555553805
0.8061598898
0.8679027289
0.7543742420
0.8466282922
0.8292025525
0.8495974630
0.8645851924
0.9198800732
0.7217504385
0.7390964431
0.8085435588
0.8415056769
0.8624108814
0.9273537785
0.8178643186
0.7378365006
0.7726917281
0.8199648062
0.8451760218
0.8729557182
0.9271429197
0.8731451727
0.7728106081
0.7373891989
0.8387252651
0.7260687651
0.7281508709
0.7507759901
0.8655004114
0.7787579819
0.8868488540
0.8591442804
0.9756367477
0.8379706950
0.8072962490
0.9575367989
0.8336987610
0.9242164985
0.7167947153
0.7194280175
0.8970289583
0.9866432035
0.7893443823
0.8734689187
0.7902514144
0.7305002063
0.7748821170
0.7474354825
0.7948194491
0.9830429849
0.7152232730
0.8057061783
0.7450614661
0.9613628642
0.8411572349
0.8238530542
0.8181468826
0.8120462550
0.7626507734
0.7275074946
0.9197287788
0.7735222846
0.8691077984
0.7524529635
0.9739201016
0.9012452323
0.7205086074
0.7489504735
0.7849842092
0.7751834895
0.7207629631
0.8521349415
0.7307595457
0.8221703821
0.9325716624
0.9111331308
0.7957709474
0.8415136346
0.7178872692
0.7335786654
0.7329252763
0.8410576844
0.8992888605
0.9249612797
0.7826438123
0.9537065751
0.8601420756
0.8622452776
0.7462338974
0.7313121107
0.9215366063
0.8065252852
0.9051434436
0.7550528354
0.7770685366
0.8888995012
0.8839540445
0.9437718154
0.7415411245
0.7425454540
0.8015559553
0.8324489670
0.8527136954
0.7520126161
0.8099577530
0.7302982791
0.7593998604
0.8170258057
0.8613996507
0.8137960128
0.9622512411
0.8655134437
0.7151600168
0.7627829142
0.7329370040
0.9107705005
0.8977575757
0.7641764766
0.9125424387
0.8545296589
0.7319158667
0.8140409865
0.9750609621
0.7794978660
0.8265587777
0.7526030901
0.7202388863
0.7521682540
0.8328942338
0.9514208161
0.7881316336
0.8920466857
0.7579245515
0.7165055376
0.7616002392
0.9259412155
0.7879005117
0.8519170242
0.8285671282
0.8260964246
0.7318747339
0.8243049798
0.9650916296
0.9297825497
0.9179474148
0.9171064838
0.8226771155
0.7932332610
0.8168118920
0.7647574794
0.7142293621
0.9373984928
0.8463709249
0.8238543143
0.8042371599
0.8017096292
0.9460386184
0.8611430458
0.8220492123
0.8631806785
0.8909794001
0.7984144675
0.8120545557
0.7626618166
0.7732062515
0.7357816695
0.8571621677
0.7241253702
0.7771398902
0.8226715462
0.7439515266
0.8146521502
0.7881458658
0.7478585916
0.8519223747
0.8295608194
0.7421257475
0.8488756164
0.7910704916
0.7439794132
0.7480008464
0.7546515416
0.9395834094
0.8142824028
0.8721870139
0.8169302817
0.7750560339
0.7416697051
0.7485918335
0.8384927394
0.8140488101
0.7888328725
0.8311247214
0.8328980455
0.7642907922
0.8463739002
0.8017203021
0.8571702004
0.7416728076
0.7319038394
0.7749735128
0.8112570690
0.8543552673
0.7949705993
0.8034417247
0.8184815931
0.7579478326
0.7856763488
0.8154652914
0.9165734184
0.8039708687
0.8234142253
0.7493464115
0.8434102688
0.7502947799
0.7363707393
0.8183650667
0.8813133584
0.9081030101
0.7629904935
0.8189527614
0.8977539545
0.8243110142
0.7549464413
0.8840549617
0.7732244594
0.7526014324
0.7935142316
0.9622507055
0.7773833404
0.7697875327
0.8711719817
0.7854479060
0.7178818334
0.8409959410
0.7194862188
0.7599059605
0.8146541376
0.7625801646
0.8000649653
0.8170650024
0.8631843218
0.8116364046
0.7706025535
0.8252158012
0.9437756848
0.8522896065
0.7302847559
0.8082925013
0.9537178544
0.7616174860
0.8070790800
0.7550305875
0.8049731007
0.7151694250
0.7498822235
0.8458875281
0.9381978327
0.7762362905
0.7439492870
0.7760770932
0.9243002187
0.8099647826
0.7826803603
0.8024178408
0.7804086322
0.9248154323
0.9111813479
0.8001129104
0.7885325151
0.8309772640
0.9103425530
0.8096180865
0.7599054651
0.8183200452
0.7978995619
0.8311298197
0.7774001251
0.7486165662
0.8142898021
0.9157739999
0.7582864528
0.8360661849
0.8488807491
0.7886987294
0.8005979305
0.9713202326
0.8434138639
0.7952732315
0.7804096201
0.8000591761
0.7922568637
0.7363963484
0.7910830538
0.7630118694
0.8234209385
0.9274838439
0.9830557959
0.8757730879
0.7798140244
0.8543629762
0.7857630630
0.7718748329
0.7598101074
0.9330520453
0.8911799697
0.7493474059
0.7955977228
0.9342357284
0.7959365554
0.7949586211
0.8356482208
0.8210135858
0.7960392724
0.7719555454
0.7489975159
0.8034508323
0.8912098977
0.8051535310
0.8395511337
0.8267819750
0.8328619787
0.9529662938
0.9878890136
0.8462192886
0.7985579326
0.7835319024
0.8314423008
0.8138303887
0.9711131390
0.9803503168
0.7642951384
0.7897176207
0.7732725125
0.7979747622
0.9360653962
0.7960285433
0.7941018968
1.0284287626
1.0171382333
0.7869722192
0.7944836503
0.9626515255
0.7987968576
0.7963140682
0.7946875943
0.9971004872
1.0204153984
1.0166120831
0.8056016819
0.8106867767
0.7964561052
0.8037296182
0.8011364922
0.9880853977
1.0163681517
0.9114962339
0.9535022630
0.7976741307
1.0365283619
1.0481194068
0.8036956700
0.9830502454
0.9533222066
0.8001135901
1.0526238928
0.8039759405
1.0104736053
0.8171799794
0.8149105660
1.0510791201
0.8096183888
1.0393711912
1.0061144017
0.8189561751
0.9863697828
0.8131704448
0.8055816577
0.9715071039
0.9621545167
0.8232657817
0.8715905174
0.8727495356
0.8727989173
0.8716303889
0.8745745795
0.8713982344
0.8781204376
0.8778032281
0.8705606659
0.8713024335
0.8697199313
0.8705946132
0.8756222940
0.8754618110
0.8729538431
0.8808443426
0.8778481436
0.8746135586
0.8765569229
0.8771990334
0.8758409173
0.8703187873
0.8700802034
0.8818625241
0.8713185163
0.8707057150
0.8779487952
0.8705805455
0.8756540967
0.8808249036
0.8698928728
0.8714680676
0.8674425901
0.8631173349
0.8677764133
0.8808819824
0.8800960874
0.8765982925
0.8682093644
0.8606763763
0.8690257886
0.8557590062
0.8651842416
0.8389231597
0.8737057414
0.8670450251
0.8589113371
0.8407686942
0.8707362271
0.8713518672
0.8684068446
0.8805212097
0.8787408074
0.8674732843
0.8651017793
0.8578869317
0.8656100952
0.8623668761
0.8699322626
0.8646786972
0.8678210768
0.8632544224
0.8500845298
0.8574670761
0.8631520566
0.8652482039
0.8622624185
0.8618582633
0.8494922685
0.8668706329
0.8667778615
0.8588430252
0.8409289098
0.8529459589
0.8597083666
0.8766183767
0.8389445909
0.8601584823
0.8549461529
0.8558077661
0.8638130058
0.8579155471
0.8862405608
0.8808739450
0.8632948704
0.8623953230
0.8619827386
0.8500681783
0.8655681333
0.8547310358
0.8560872955
0.8596277956
0.8581667551
0.8914099484
0.8767511651
0.8550633928
0.8587011450
0.8637814166
0.8601758859
0.8593713928
0.8597754077
0.8598451510
0.8628521995
0.8600774445
0.8616310125
0.8435867839
0.8591804496
0.8327334618
0.8470861576
0.8597358336
0.8656284124
0.8549723182
0.8581533894
0.8590619018
0.8602359158
0.8640402192
0.8641029776
0.8409571499
0.8508575052
0.8622050336
0.8573579970
0.8766538309
0.8582119984
0.8620130029
0.8596574147
0.8363235153
0.8550663989
0.8675463981
0.8599317987
0.8686720513
0.8915907056
0.8619186431
0.8809167607
0.8542486235
0.8466392017
0.8613682050
0.8558633202
0.8862620979
0.8754496686
0.8657394414
0.8613190385
0.8508921018
0.8705189657
0.8640644156
0.8630906493
0.8610542216
0.8600993280
0.8098468275
0.8362808887
0.8594036630
0.8573842882
0.8597655738
0.8615242862
0.8641397490
0.8592049340
0.8656493424
0.8470245963
0.8523148686
0.8628085522
0.8327956755
0.8584072257
0.8598083125
0.8605042344
0.8179433564
0.8575119099
0.8471116451
0.8717181622
0.8675507196
0.8549098132
0.8356467330
0.8558681482
0.8230223000
0.8599588947
0.8756654813
0.8506390098
0.8781673765
0.8531562660
0.8448949434
0.9213010999
0.8588078215
0.8541840491
0.8269795050
0.8703647927
0.8288420631
0.8582041454
0.8687157356
0.8834709364
0.8423021501
0.8363341166
0.9431054193
0.8523126729
0.8696774721
0.9029347082
0.8705411522
0.8628429899
0.8795901827
0.8597869880
0.8072909529
0.8762711224
0.8610867754
0.8668170880
0.8363425403
0.8877373460
0.8099526531
0.8842146740
0.8404043301
0.8641708900
0.8781951840
0.9429970412
0.8552359242
0.8703770753
0.8177258963
0.8363761147
0.8706392559
0.8542093895
0.8799602837
0.8582218566
0.8531412170
0.8204064373
0.8262828040
0.8817859165
0.9335427931
0.8753477570
0.8512573145
0.8561450092
0.8506944367
0.8835627247
0.8438727592
0.8230984912
0.8877459229
0.8215887944
0.8648953709
0.8757399790
0.9076475052
0.8787612007
0.8917420143
0.8712881470
0.8307634209
0.8962291857
0.9203416369
0.9147782865
0.8898883030
0.9056828426
0.8554538955
0.8816110391
0.8613525973
0.8763648685
0.9269494666
0.8444479768
0.9244289783
0.8556521389
0.8552259338
0.8799877991
0.8706699695
0.8938663600
0.8848599288
0.9049784109
0.8713752666
0.8810804015
0.8253247315
0.8072847698
0.8461220193
0.8882180099
0.8801619302
0.8757663866
0.9203004013
0.8918639928
0.9030466179
0.8710425602
0.8554774607
0.8917579725
0.8568447635
0.8878467973
0.8649670257
0.9133633326
0.8916225540
0.9246988834
0.8787953112
0.8968961813
0.9056772542
0.8080399162
0.8872586077
0.7963267283
0.8353734423
0.9510262528
0.9243843059
0.8938906083
0.8759774215
0.9250803437
0.9192204097
0.8886961002
0.8686695062
0.8557961419
0.9394480181
0.8834845070
0.8967840149
0.9085400553
0.8840155340
0.8718315117
0.9485391712
0.8825672326
0.8710694090
0.8916568491
0.8611431997
0.8862947485
0.8802087330
0.9812565635
0.8872904594
0.8900824533
0.9896129177
0.8299489397
0.8462159050
0.8903927352
0.9161129723
0.8533078463
0.8855333293
0.7947896230
0.9050727467
0.8846213578
0.8655575141
0.9053396543
0.9696071575
0.8897176041
0.9960827301
0.8886932268
0.8705378906
0.9281996061
0.9596851054
0.8187140519
0.9191731638
0.9349062996
0.9363035594
0.9932457832
0.8830406832
0.8788713427
0.8898796814
0.8840497068
0.8355442111
0.8759979860
0.9509773014
0.7965080392
0.8967748883
0.9552871234
0.9075735039
0.9250430993
0.9651309669
0.8822424044
1.0014421738
0.8906963706
0.8157647747
0.8855642864
0.8901135025
0.9374943758
0.9749943532
1.0028487212
0.8503055941
0.9730703735
0.8636503834
0.8867511369
0.9894922941
0.8846558657
0.8300555460
0.8882679814
0.8882646432
0.9404311584
0.9053191781
0.8441086521
0.8978837138
0.8579727218
0.9811594031
0.8911526971
0.8953201816
0.9451284794
0.9774146649
0.8788924913
0.7988804396
0.9596118124
0.8868890478
0.8830746785
0.8188365043
0.8947869951
0.9348440231
1.0011041112
0.8833679437
0.9075550407
0.8290311374
0.7967303798
1.0281524215
0.8406567933
0.8911846072
0.9374079968
0.9680667728
0.8882975183
1.0027596187
0.8978709471
0.9605073654
0.8950643162
0.9749100377
0.8158373093
0.8908330449
1.0150527155
0.9178900049
0.8881195112
0.9464823847
0.8155372244
0.9937260715
0.8924358421
0.7820615315
1.0295699797
0.8953770545
0.9010779384
0.8330396511
1.0189049553
0.7989986247
0.8939129288
0.9037747413
0.8869230338
0.8007389045
1.0262110268
1.0204215117
0.8844489681
0.8950975884
0.8908656289
0.8970204616
0.9936025972
0.9603878449
0.8855926088
0.9552933922
0.8196869234
0.9178650811
1.0316830577
0.7967966564
0.8966380397
0.8986280654
0.9804732441
0.8829151235
0.7850841128
0.8048126269
1.0126535686
1.0294879713
0.9028887336
1.0261268641
1.0111731787
1.0245846627
0.7822770398
0.9000781686
1.0148346844
0.7693789010
0.8815359888
0.8519044857
0.8779316053
0.8651676165
0.7889645373
0.8986619027
0.7629011898
0.8924706688
0.8313554741
0.8749416596
0.8844742525
0.7856891406
0.8949437960
0.8935571849
0.9551439229
0.8810152508
0.8885410541
0.8592370202
0.8710841367
0.7679084886
0.8425389854
0.8766642256
0.8026505078
0.8966724915
0.8914208655
0.8856211890
1.0029059490
0.7504700324
0.7725064291
1.0110757725
0.8865850015
0.8180024698
1.0245027835
0.8387821231
0.7565109095
0.9933142162
0.9278853716
0.9608908946
0.7920442228
0.7468614682
0.9080223690
1.0189664810
0.8631147966
0.7716674481
1.0088562741
0.9488537190
0.9720688361
0.8141544360
0.7975396266
0.8419190758
0.8682207877
0.8897181162
0.8183071530
0.7684421544
0.8749585824
0.7629666595
0.8779524094
0.8872999941
0.7443552667
0.8579435532
0.8750402804
0.8925036715
0.8389279855
0.8694088672
0.8567015917
0.8843401135
0.8132638474
0.8507413903
0.8697788261
0.8935914623
0.8311388228
0.7865130821
0.8798836111
0.7804823925
0.7502173982
0.8640272566
0.8831447178
0.8486442427
0.8710966790
0.8632965192
0.8885744934
0.8733446517
0.8033385690
0.7336539868
0.7352095012
0.7673929298
0.8213644641
0.7874493526
0.9487161761
0.9851829553
0.9842211509
0.7570248708
1.0158117225
0.9539544484
0.8769735208
0.9228054327
0.8271629239
1.0027957835
0.9154713240
0.8285459002
0.8506486003
0.7295257065
0.7481409734
0.7925962042
0.8497109859
0.7697668794
0.9360854483
0.9607366985
0.9978372607
0.7505215389
1.0031490566
0.9640168674
0.9014560577
0.9430267832
0.8950894232
0.8076608864
0.8317190695
0.8610045438
0.8783599877
0.8873306220
0.8678894420
0.8478977912
0.7801777451
0.7316135418
0.8496012850
0.7443993301
0.8624330610
0.8061371280
0.7543435302
0.8269150145
0.8682298938
0.8415056778
0.8624052748
0.8831744413
0.8770719851
0.8557448804
0.7975650581
0.7373601578
0.8564632925
0.7619654116
0.8640304929
0.8199472927
0.7727820639
0.8383520138
0.8735839528
0.7204885539
0.8091062988
0.7488980700
1.0051573959
0.7357920957
0.9196453652
0.8616104556
0.7902245225
0.9093476871
0.9429615250
0.9470888079
0.9740049179
0.7237756400
0.8132953682
0.8054511995
0.7622836372
0.8688103072
0.9764690369
0.7304666872
0.7845195351
0.7747271909
0.9934129375
0.7336821654
0.9389841785
0.8351830467
0.8866546197
0.9304298482
0.9575978649
0.9867109368
0.7194115511
0.8376475870
0.7451870927
0.8968350769
0.9538401503
0.9325683547
0.7313231727
0.7250961803
0.8415305639
0.8385607739
0.8610075008
0.9394741442
0.9158858528
0.7957553802
0.7291090274
0.7462060856
0.8150967780
0.8154669561
0.8992589271
0.9343115711
0.8717885146
0.7656763453
0.7316466500
0.8410578640
0.8221626188
0.8548034427
0.7207540766
0.7319895830
0.7770729544
0.8601337773
0.7595525150
0.8735216035
0.8533126454
0.9288869364
0.7220992360
0.7318863730
0.8212759998
0.8474672275
0.8666416620
0.9450521752
0.9187680736
0.8099460450
0.7393016107
0.7627601257
0.8278472942
0.8349633379
0.8861449335
0.9395777951
0.8770959055
0.7835470500
0.7478207200
0.8483005024
0.8324454896
0.8564618897
0.7222107857
0.7309047634
0.7589284697
0.8701920613
0.7864987509
0.8979063327
0.8545268662
0.7882180577
0.9651177374
0.7210539593
0.8510740090
0.7543212938
0.9428858302
0.7930980143
0.9685961236
0.8285638581
0.8272887713
0.8153225364
0.9170201801
0.8168051495
0.7752540786
0.7142221567
0.9389909513
0.7216019013
0.7635843890
0.9049048652
0.7415420322
0.9942105269
0.7794794226
0.8609166684
0.8002401979
0.7415774529
0.7907132458
0.7959028139
0.7357817644
0.7984060826
0.9750955936
0.7164884988
0.8207341316
0.7439428656
0.9514253091
0.8263433673
0.9470539541
0.8312354311
0.8299218739
0.8188268842
0.9360089480
0.8139148808
0.7644600273
0.7202391537
0.9265768352
0.7238001014
0.7762275599
0.8797230873
0.7521605973
0.9850568913
0.8918859138
0.7275801983
0.7631949016
0.7878920847
0.7615448197
0.7187890472
0.8724154615
0.8656906186
0.9379762402
0.7421237690
0.7291087614
0.7480012997
0.7773137832
0.8292077961
0.9408941633
0.8306333421
0.9201001642
0.9408961416
0.7502617657
0.8045824367
0.8548969787
0.7211778251
0.7320004839
0.7356342188
0.7300993282
0.7527402652
0.8466273566
0.9111677884
0.9343145164
0.7960338801
0.8813155550
0.8546897493
0.8384958830
0.9651094863
0.8645969756
0.7161959999
0.8735464780
0.7555850961
0.7260823329
0.7335721029
0.9165663352
0.9081033231
0.7356169246
0.7888341711
0.9147292495
0.8154678417
0.9158808129
0.9028927020
0.8533134881
0.7251232823
0.7595421767
0.7883490035
0.9249518638
0.7217503189
0.8893209154
0.8960953007
0.8622122104
0.9524426835
0.7416771075
0.7281575745
0.7401405649
0.8040361840
0.8387262288
0.9394786098
0.8519966465
0.9306404593
0.7524279599
0.8178737915
0.8730498016
0.7385262661
0.7375948620
0.7375859011
0.7590836117
0.8483000056
0.9198817231
0.9273570873
0.8309230357
0.8668589947
0.8181027654
0.9703663186
0.8702097868
0.7142272603
0.7550609285
0.8452893064
0.7727170000
0.7301178104
0.9157644533
0.9044883520
0.7507651881
0.7668252917
0.9137909861
0.7864947717
0.8979194599
0.9106099653
0.8591500103
0.7391267481
0.7392917079
0.8085368424
0.8208332237
0.9829979095
0.9103365158
0.9242941737
0.9360360769
0.7893643300
0.8261010375
0.8414409288
0.8139225726
0.7697882281
0.7644467079
0.7275132390
0.7524630238
0.9381899073
0.8453218041
0.8272910794
0.8385171250
0.9613285497
0.8039222656
0.7963503476
0.9342296452
0.9014044109
0.8221972185
0.8311154804
0.9067271439
0.7882285896
0.8181540515
0.7519004472
0.7519155923
0.7659100166
0.7152337935
0.7753111896
0.9227931499
0.7849948156
0.7642304846
0.8568723082
0.8337018564
0.7194684704
0.7726412093
0.8247317328
0.8201388973
0.7355248953
0.8224979551
0.8467049667
0.8304434094
0.9755848096
0.9248092365
0.9139618300
0.9242881079
0.8257784404
0.8075203901
0.8188335844
0.7643806108
0.7167968017
0.7642377916
0.9330431125
0.8512802788
0.8299230910
0.8401442066
0.9429008295
0.8070709635
0.8093883118
0.9388348039
0.8737183988
0.8247357005
0.8651490912
0.8884634712
0.7948294372
0.8153304748
0.7644689473
0.7988297990
0.7816324755
0.7210850105
0.7474715030
0.9191396228
0.7959106652
0.8625587888
0.8312374070
0.8211691461
0.7246299803
0.7791396376
0.8297701681
0.8221921855
0.7501832383
0.8179464242
0.7526882663
0.8453238972
0.7963628053
0.7502631605
0.8568799904
0.8306323307
0.7415438069
0.7246549592
0.7830450514
0.7400167720
0.8135067761
0.8435862147
0.8005322486
0.9155163085
0.7843343946
0.7479597019
0.8217459766
0.7502093410
0.7758818880
0.7479588819
0.7589194526
0.7527417975
0.8127655891
0.9111444701
0.9450686528
0.7478581238
0.7222281483
0.9155143850
0.7973437453
0.8081425967
0.8724163210
0.8862164653
0.7442345681
0.8175943859
0.7187815782
0.8376571845
0.7773141320
0.7787541196
0.7436366505
0.7497611157
0.9051467021
0.7282082277
0.8164238641
0.9501418715
0.9019040484
0.7309103703
0.8434190922
0.9141314914
0.7453592625
0.8196328065
0.8434185993
0.8878104495
0.8208391610
0.7635077287
0.7923885936
0.8259527377
0.8385196295
0.8868532285
0.7623036663
0.8512841040
0.8093964091
0.7480558739
0.8625709821
0.8040359499
0.7436409635
0.7750558446
0.7355510677
0.7729389815
0.7425465492
0.8100007201
0.8483677170
0.7944801512
0.7969279715
0.8163710729
0.7659319625
0.7834967521
0.7307584716
0.7641757806
0.7520141482
0.8149069156
0.9271464975
0.8721863101
0.9147335282
0.8032489708
0.8178081489
0.8527137948
0.7459008908
0.8124157458
0.8384674854
0.7590843437
0.9141239454
0.7480545961
0.7451122890
0.7357421684
0.8171767067
0.8893236545
0.9125466889
0.7578262137
0.8172307993
0.8613968498
0.9028944604
0.8304476834
0.7526486427
0.8137934443
0.8326949461
0.8401467426
0.8962072075
0.7816497192