<VTKFile type="UnstructuredGrid" version="0.1">
	<UnstructuredGrid>
		<Piece NumberOfPoints="1862" NumberOfCells="3498">
			<CellData>
				<DataArray type="Int32" Name="type" NumberOfComponents="1" Format="ascii">
0
0
0
0
0
0
0
0
0
0
0
0
0
0
0
0
1
0
0
1
0
0
0
0
0
0
0
0
0
0
0
0
0
1
0
0
0
0
0
0
0
0
0
0
0
0
0
0
0
0
1
0
0
0
0
0
0
0
0
0
0
1
0
0
0
0
0
0
0
0
0
0
0
0
0
0
0
0
0
0
0
0
0
0
0
0
0
0
0
0
0
0
0
0
0
0
0
0
0
0
0
0
0
0
0
0
0
0
0
0
0
0
0
0
0
0
0
0
0
0
0
0
0
1
0
0
0
0
0
0
0
0
0
0
0
0
0
0
0
0
0
0
0
0
0
0
0
0
0
0
0
1
0
1
1
0
0
0
0
0
0
0
0
0
0
0
0
0
1
0
1
0
0
0
0
1
0
0
0
0
0
0
0
0
1
1
0
0
0
0
0
1
0
0
0
0
0
0
0
0
1
0
0
0
0
0
0
0
0
0
0
0
0
0
0
0
0
0
0
0
0
0
0
0
0
0
0
0
0
0
0
0
0
1
0
0
0
0
0
0
0
0
0
0
0
0
0
0
0
0
0
0
0
0
0
0
0
0
0
0
0
0
0
0
0
0
0
0
0
0
0
0
0
0
0
0
0
0
0
0
0
1
0
0
0
0
0
0
0
0
0
0
0
0
0
0
0
0
0
0
0
0
0
0
0
0
0
0
0
0
0
0
0
0
0
0
0
0
0
0
0
0
0
0
0
0
0
0
0
0
0
0
1
0
0
0
0
0
0
0
0
0
0
0
0
0
0
0
0
0
0
0
0
0
0
0
0
0
0
0
0
0
0
0
0
0
0
0
0
0
0
0
0
0
0
0
0
0
0
0
0
0
0
0
0
0
0
0
0
0
1
0
0
0
0
0
0
0
0
0
0
0
0
0
0
0
0
0
0
0
0
0
0
0
0
0
0
0
0
0
0
0
0
0
0
0
0
0
0
0
0
0
0
0
0
0
0
0
0
0
0
0
0
0
0
0
0
0
0
0
0
0
0
0
0
0
0
0
0
0
0
0
0
0
0
0
0
0
0
0
0
0
0
0
0
0
0
0
0
0
0
0
0
0
0
0
0
0
0
0
0
0
0
0
0
0
0
0
0
0
0
0
0
0
0
0
0
0
0
0
0
0
0
0
0
0
0
0
0
0
0
0
0
1
0
0
0
0
0
0
0
0
0
0
0
0
0
0
0
0
0
0
0
1
0
0
0
0
0
0
0
0
0
0
0
0
0
0
0
0
0
0
0
0
0
0
0
0
0
0
0
0
0
0
0
0
0
0
0
0
0
0
0
0
0
0
0
0
0
0
0
0
0
0
0
0
0
1
0
0
0
0
0
0
0
0
0
0
0
0
0
0
0
0
0
0
0
0
0
0
0
1
0
0
0
0
0
0
0
0
0
0
0
0
0
0
0
0
0
0
0
1
0
0
0
1
0
0
0
0
0
0
0
0
0
0
0
0
0
0
0
0
0
0
0
0
0
0
0
0
0
1
0
0
0
0
0
0
0
1
0
0
0
0
0
0
0
0
0
0
0
0
0
0
0
0
0
0
0
0
0
0
0
0
0
0
1
0
0
0
0
0
0
0
1
0
0
0
0
0
0
1
0
0
0
0
0
0
0
0
0
0
0
0
0
0
0
0
0
0
0
0
0
0
0
0
0
0
0
0
0
0
0
0
0
0
0
0
0
0
1
0
0
0
0
0
1
0
0
0
0
0
0
0
1
0
0
0
0
0
0
0
0
0
0
0
0
0
1
0
0
0
0
0
0
0
0
0
0
0
0
0
0
0
0
0
0
0
0
0
0
0
0
0
0
0
0
0
0
0
0
0
0
0
0
0
0
0
0
0
0
0
0
0
0
0
0
0
0
0
0
0
1
0
0
0
0
0
0
0
0
0
0
0
0
0
0
0
0
0
0
0
1
0
0
0
0
0
0
0
0
0
1
0
0
0
0
0
0
0
0
0
0
0
0
0
0
0
0
0
0
0
0
0
0
0
0
0
0
0
0
0
1
0
1
0
0
0
0
0
0
0
0
0
0
0
0
0
0
0
0
0
0
0
0
0
0
0
0
0
0
0
1
0
0
0
1
0
0
0
0
0
0
0
0
0
0
0
0
0
0
0
0
0
0
0
0
0
0
0
0
0
0
0
0
1
0
0
0
0
0
0
0
0
0
0
0
0
0
0
0
0
0
0
0
0
0
0
0
0
0
1
0
0
0
0
0
0
0
0
0
0
0
0
0
0
0
0
0
0
0
0
0
0
0
1
0
0
0
0
0
0
1
0
0
0
0
0
0
0
0
0
0
0
1
0
0
0
0
0
0
0
0
0
0
0
0
0
0
0
0
0
0
0
0
1
0
0
0
0
0
0
0
0
0
0
0
1
0
0
0
0
0
0
0
0
0
0
0
0
0
0
0
0
0
0
0
0
0
1
0
0
0
0
0
0
0
0
0
1
1
0
1
0
1
0
0
0
0
0
0
0
0
0
0
0
1
0
0
0
0
0
1
1
0
0
0
0
0
0
1
0
0
0
0
0
1
1
1
0
0
0
0
0
0
0
0
0
0
0
0
1
1
0
0
1
0
0
0
0
0
1
0
0
0
1
0
1
0
0
0
0
0
0
0
1
0
0
0
0
0
0
0
1
0
0
1
0
0
0
0
0
0
0
0
0
0
0
0
0
0
0
1
0
0
0
0
0
0
0
0
0
0
0
0
0
0
0
0
0
0
0
0
0
0
0
0
0
0
0
0
0
0
0
0
0
0
0
0
1
0
0
0
0
0
0
1
0
0
0
1
0
0
0
0
0
0
0
0
0
0
0
1
0
0
0
0
0
0
0
0
0
0
0
0
0
0
0
0
0
0
0
0
0
0
0
0
0
0
0
0
0
0
0
0
0
0
0
0
0
0
0
0
1
1
0
0
0
0
0
0
0
0
0
0
0
0
0
1
0
0
0
0
0
0
0
0
0
0
0
0
0
0
0
0
0
0
0
0
0
0
0
0
0
0
0
0
0
0
0
0
0
0
0
0
0
0
0
0
0
0
0
0
0
0
0
0
0
0
0
0
0
0
0
0
0
0
0
0
0
0
0
0
0
0
0
0
0
0
0
0
1
1
0
0
0
0
0
0
0
0
1
0
0
0
0
0
0
0
0
0
0
0
0
0
0
0
0
0
0
0
0
0
0
0
1
0
0
0
0
0
0
0
0
0
0
0
0
0
0
0
0
1
0
0
0
0
0
0
0
0
0
0
0
0
0
0
0
0
0
0
0
0
0
0
0
0
0
0
0
0
0
0
0
0
0
0
0
0
0
0
0
0
0
0
0
0
0
0
0
0
0
0
0
0
0
0
0
0
0
0
0
0
0
0
0
0
0
0
0
0
0
0
0
0
0
0
0
0
0
0
0
0
0
0
0
0
0
0
0
0
0
0
1
1
0
0
0
0
0
1
0
0
0
0
0
0
0
0
0
0
0
0
1
0
0
0
0
0
0
0
0
0
0
0
0
0
0
0
0
0
0
0
0
0
0
0
0
0
0
0
0
0
0
0
0
0
0
0
0
0
0
0
0
0
0
0
0
0
0
0
0
0
0
0
0
0
1
0
1
0
0
0
0
0
0
0
0
0
0
0
0
0
0
0
0
0
0
1
0
0
0
0
0
0
0
0
0
0
0
0
0
0
0
0
0
0
0
0
0
0
0
0
0
0
0
0
0
0
0
0
0
0
0
0
0
0
0
0
0
0
0
0
0
0
0
0
0
0
0
0
0
0
0
0
0
0
0
0
0
0
0
0
0
0
0
0
0
0
1
0
0
0
0
0
0
0
0
0
0
1
0
0
0
0
0
0
0
0
0
0
0
0
0
0
0
0
0
0
0
0
0
0
0
0
0
0
0
0
0
0
0
0
0
0
0
0
0
1
0
0
0
0
0
0
0
0
0
0
0
0
0
0
0
0
0
0
0
0
0
0
0
0
0
0
0
0
0
0
0
0
0
0
0
0
0
0
0
0
0
0
0
0
0
0
0
0
0
0
0
0
0
0
0
0
0
0
0
0
0
0
0
0
0
0
0
0
0
0
0
0
0
0
0
0
0
0
0
0
0
1
0
0
0
0
0
0
0
0
0
0
0
0
0
0
0
0
0
0
0
0
0
0
0
0
0
0
0
0
0
0
0
0
0
0
0
0
0
0
0
0
0
0
0
0
0
0
0
0
0
0
0
0
0
0
0
0
0
0
0
0
0
0
0
0
0
0
0
0
0
0
0
0
0
0
0
0
0
0
0
0
0
0
0
0
0
0
0
0
0
0
0
0
0
0
0
0
0
0
0
0
0
0
0
0
0
0
0
0
0
0
0
0
0
0
0
0
0
0
0
0
0
0
0
1
0
0
0
0
0
0
0
0
0
0
0
0
0
0
0
0
0
0
0
0
0
0
0
0
0
0
0
0
0
0
0
0
0
0
0
0
0
0
0
0
0
0
0
0
0
0
0
0
0
0
0
0
0
0
0
0
0
0
0
0
0
0
0
0
0
0
0
0
0
0
0
0
0
0
0
0
0
0
0
0
0
1
0
0
0
0
0
0
0
1
0
0
0
0
0
0
0
0
0
0
0
0
0
0
0
0
0
0
0
0
0
0
0
0
0
0
0
0
0
0
0
0
0
0
0
0
0
1
0
0
0
0
0
0
0
0
0
0
0
0
0
0
0
0
0
0
0
0
0
1
0
0
0
0
0
0
0
0
0
0
0
0
1
1
0
0
0
0
0
0
0
0
0
0
0
0
0
0
0
1
1
0
1
0
0
0
0
0
0
0
0
0
1
0
0
0
0
0
0
1
0
0
0
0
0
0
0
0
0
0
1
0
0
0
0
1
0
1
0
0
0
0
0
0
0
1
0
0
0
1
0
0
0
1
0
1
1
0
0
1
1
0
0
0
1
0
0
0
1
0
0
0
0
0
0
0
0
0
1
0
0
0
0
0
0
1
0
0
0
0
0
0
0
0
0
0
0
0
0
0
0
0
0
0
0
0
0
0
0
0
0
0
0
1
0
0
1
0
0
0
0
0
0
0
0
0
0
0
0
0
0
0
0
0
0
1
0
0
1
0
0
0
0
0
0
0
0
0
0
0
1
0
0
1
0
0
0
0
0
0
0
0
0
0
0
1
1
0
0
0
0
0
0
0
0
0
0
0
0
1
0
0
0
0
0
0
0
0
0
0
0
0
0
0
0
0
0
1
0
0
0
0
0
0
0
0
0
0
0
0
0
0
0
0
0
1
0
0
0
0
0
0
0
0
0
0
0
0
0
0
0
0
0
0
0
0
0
0
0
0
0
0
0
0
0
0
0
0
0
0
0
0
0
0
0
0
1
0
0
0
0
0
0
0
0
0
0
0
0
0
0
0
0
0
0
0
0
0
0
0
0
0
0
0
0
0
0
0
0
0
0
0
0
0
0
0
0
0
0
0
0
0
1
0
0
0
0
0
0
0
0
0
0
0
0
0
0
0
0
0
0
0
0
0
0
0
0
0
0
0
0
0
0
0
0
0
0
0
0
0
0
0
0
0
0
0
0
0
0
0
1
0
0
0
0
0
0
0
0
0
0
1
0
0
0
0
0
0
0
0
0
0
0
0
0
0
0
1
0
0
1
0
0
0
0
0
0
0
0
0
0
0
0
0
0
0
0
0
0
0
0
0
0
0
1
0
0
0
0
0
0
0
0
0
0
0
0
0
0
0
0
0
0
0
0
0
0
0
0
0
0
0
0
0
0
0
0
0
0
0
1
0
0
0
0
0
0
0
0
0
0
0
0
0
0
0
0
0
0
0
0
0
0
0
0
0
0
0
0
0
0
0
0
0
0
0
0
0
0
0
0
0
0
0
0
0
0
0
0
0
0
0
0
0
0
0
0
0
0
0
0
0
0
0
0
0
0
0
0
0
0
0
0
0
0
0
0
1
0
0
0
0
0
0
0
0
0
0
0
0
0
0
0
0
0
0
0
0
0
0
0
0
0
0
0
0
0
0
0
0
0
0
0
0
0
0
0
1
0
0
0
0
0
0
0
0
0
0
0
0
1
1
0
0
0
0
0
0
0
0
0
0
0
0
0
0
0
0
0
0
0
0
0
0
0
0
0
0
0
0
0
0
0
0
0
0
0
0
0
0
0
0
0
0
0
0
0
0
0
0
0
0
0
0
0
0
0
0
0
0
0
0
0
0
0
0
0
0
0
0
0
0
0
0
0
0
0
0
0
0
0
0
0
0
0
0
0
0
0
0
0
0
0
0
0
0
0
0
0
0
0
0
0
1
0
1
0
0
0
0
0
0
0
1
1
1
1
0
0
0
0
0
0
0
0
0
0
0
0
0
0
0
0
0
0
0
0
0
0
0
0
0
0
0
0
1
1
0
0
0
0
0
0
0
0
0
0
0
0
0
0
0
0
0
0
1
0
0
0
0
0
0
0
1
1
0
1
1
0
0
1
0
0
0
0
0
0
0
1
0
1
0
0
0
0
0
0
0
0
0
0
0
0
0
0
0
0
0
0
0
0
0
0
0
0
0
0
0
1
1
0
0
0
1
1
0
0
0
0
1
0
0
1
0
1
0
0
0
0
0
1
0
0
0
1
0
0
0
0
0
0
0
0
0
0
0
0
0
0
0
0
0
0
0
0
0
0
0
0
0
0
0
1
0
0
0
0
0
0
1
0
0
0
0
0
0
0
0
0
0
0
0
0
0
0
0
0
0
0
0
0
0
0
0
0
0
0
0
0
1
0
1
0
0
0
0
0
0
0
1
0
0
0
0
0
0
0
0
0
0
0
1
0
0
0
0
0
0
0
0
0
1
0
0
0
0
0
0
0
1
0
0
0
0
0
0
0
1
0
0
0
0
0
0
0
0
0
0
0
0
0
0
0
0
0
0
0
1
0
1
0
0
0
0
0
1
0
0
0
0
0
0
0
0
0
0
0
0
0
0
0
0
0
0
0
0
0
0
0
0
0
1
0
1
0
0
0
0
0
0
0
0
0
1
0
0
0
0
0
1
0
0
0
0
0
0
0
0
0
0
0
0
0
0
0
1
0
0
0
0
0
0
0
0
1
0
0
0
0
0
0
0
0
0
0
0
0
0
0
0
0
0
0
0
0
0
0
0
0
0
0
0
0
0
0
1
0
0
0
0
0
0
0
0
0
0
0
0
0
0
0
0
1
0
0
0
0
0
0
0
0
1
0
0
0
0
0
0
0
0
0
1
0
0
0
0
0
1
0
0
0
0
0
0
0
0
0
0
0
0
0
0
0
0
0
0
0
1
0
0
0
0
0
0
1
0
0
0
0
0
0
0
0
1
0
0
0
0
0
0
0
0
0
0
0
0
0
0
1
0
0
1
0
0
0
1
0
0
0
0
0
0
0
0
0
0
0
0
0
0
0
0
1
0
0
0
0
0
0
0
0
0
0
1
0
1
0
0
0
0
0
0
1
0
0
0
0
0
0
0
0
0
0
0
0
0
0
0
0
0
0
0
0
0
0
0
0
0
0
0
1
1
0
0
0
0
0
0
1
0
0
0
0
0
0
0
0
0
0
0
0
0
1
0
0
0
0
0
0
0
1
0
0
0
0
0
0
0
0
0
0
0
0
0
0
0
0
0
0
0
0
0
0
0
0
0
0
0
1
0
0
0
0
0
0
0
0
0
0
1
0
0
1
0
0
0
0
0
0
0
0
0
0
0
0
0
0
0
0
0
0
0
0
0
0
0
0
0
0
0
0
0
1
0
0
0
0
0
0
0
1
0
0
0
0
0
0
0
1
0
0
0
0
1
0
0
0
0
0
0
0
0
0
0
0
1
0
1
0
0
0
1
0
				</DataArray>
				<DataArray type="Float64" Name="h" NumberOfComponents="1" Format="ascii">
0.9549453115
0.9549574454
0.9694517498
0.9687068762
0.9662088452
0.9710642712
0.9669433120
0.9605276153
0.9673647814
0.9589310953
0.9676328904
0.9708657839
0.9459784419
0.9671862752
0.9589257787
0.9332350084
0.9710653686
0.9549454166
0.9469025321
0.9692981541
0.9709730854
0.9295038446
0.9406949114
0.9694098232
0.9701294867
0.9384786021
0.9017164901
0.9269944178
0.9540293293
0.9649366456
0.9682962374
0.9505947729
0.9187812541
0.9721125160
0.9584390375
0.9631499978
0.9662837778
0.9166088860
0.9103301376
0.9683019386
0.9603193508
0.9547125831
0.9157880218
0.9358766194
0.9653531436
0.9344426243
0.9305348586
0.9520154850
0.7619690128
0.7499523076
0.9697991960
0.9536589251
0.9473197283
0.8914838203
0.9620040878
0.8860796005
0.9482102776
0.9294029540
0.9160939840
0.9191902050
0.8838940087
0.8996784788
0.7743923859
0.9600023072
0.9236624399
0.9214689142
0.7413151957
0.7639219828
0.8993856189
0.9153661109
0.9132484265
0.9627317089
0.8840310747
0.8571721620
0.8929783948
0.8313415738
0.9296936490
0.8730168907
0.9403998165
0.8763267583
0.8525696738
0.9110111505
0.7672326214
0.7586761606
0.8503145191
0.8579921620
0.8396835232
0.7618246993
0.8404383477
0.7581238962
0.8189809452
0.8572908592
0.8580643828
0.7477071018
0.8631871287
0.8792537604
0.7843565379
0.8700039776
0.8984010526
0.8359116796
0.7662876156
0.8540981464
0.8394865425
0.9380003667
0.9579788029
0.7400720654
0.8074525892
0.7649284557
0.8694485325
0.8742969267
0.7437799196
0.7553525190
0.8280251376
0.7980906783
0.8105178003
0.8092849751
0.8450558617
0.9631837732
0.7948755238
0.7957734720
0.9589689675
0.7876503762
0.8022203449
0.9669302055
0.8028194250
0.7744528164
0.8175095321
0.9663745383
0.8182378953
0.8020970282
0.8128449290
0.8198860705
0.8042371732
0.8206295922
0.9638398261
0.8061244871
0.9433155136
0.8147671293
0.8355414470
0.9136187258
0.9663737464
0.9661619471
0.8115647090
0.8935508170
0.8267416034
0.8212632757
0.9292522054
0.7983578992
0.9643990978
0.8001497168
0.9487527750
0.8178330412
0.8131439111
0.8125974568
0.8432974750
0.8068055519
0.8134761771
0.9605508040
0.8051483397
0.9680437398
0.9011194719
0.8054633140
0.9357603040
0.9645799441
0.9630528083
0.7929445242
0.8709764496
0.9213266991
0.9683979602
0.8051144531
0.8153981292
0.9697415587
0.8117022962
0.9582424800
0.8534156794
0.8081767997
0.8782135061
0.7797991294
0.8084020628
0.9642661273
0.8017560907
0.8287619986
0.9676158194
0.7705169952
0.9711375942
0.9714138429
0.8481912469
0.8057283209
0.9685748919
0.9705084679
0.8047615201
0.8088619268
0.9696631584
0.8261318402
0.8073506796
0.7828434083
0.9595736294
0.7818151037
0.8044488472
0.7873331872
0.9712694298
0.7557731862
0.9708050451
0.8022137931
0.7544191457
0.9646865672
0.9155794623
0.9468415044
0.7795713200
0.8677958087
0.7853972351
0.9699951841
0.9633393999
0.9663812721
0.9332798199
0.7581948458
0.8937837355
0.9610607660
0.8121765991
0.9673396543
0.7469781229
0.7414357719
0.8400445054
0.7226628558
0.7255144415
0.7763463537
0.7588492594
0.7139168450
0.7212833021
0.7506340452
0.7911446075
0.7319485245
0.7197038706
0.7804137714
0.7716606655
0.7151183994
0.7626808564
0.9006907476
0.9680432193
0.8425252599
0.7481550998
0.9407144000
0.9625976220
0.8493567564
0.9416019234
0.9044419897
0.9643620963
0.7898273597
0.9237029201
0.9586226413
0.8731034252
0.7784895219
0.9602052277
0.7367319532
0.7179751729
0.9650490384
0.8785072617
0.9257001647
0.9663680423
0.7274803704
0.8103502067
0.6913272213
0.7004889368
0.7165603341
0.7130723315
0.7631959094
0.7606651556
0.7008250133
0.7721693215
0.7337363228
0.7467778879
0.8195406410
0.7447181730
0.7116153630
0.7185888746
0.6835551380
0.6961689759
0.7075264994
0.7256127925
0.7116225445
0.7520315528
0.7649873015
0.7680926782
0.7566519383
0.7407776692
0.7363559864
0.7103736346
0.8889402072
0.9627043402
0.9615586786
0.8877490936
0.7277480322
0.9361651195
0.9342820104
0.8226752081
0.7196013454
0.8239270515
0.9157558069
0.9575051552
0.9650326881
0.9645761768
0.9140014710
0.7578103517
0.6898613717
0.6992769920
0.8572476239
0.7531027340
0.8573793461
0.9576924531
0.6667391197
0.7019769088
0.6887646825
0.7569967998
0.6679649883
0.7410377087
0.7220213193
0.7877391021
0.7373839666
0.7489986478
0.7902973863
0.7132619391
0.6861861931
0.7314881626
0.7495678744
0.6770763043
0.6936277548
0.7013018217
0.7535039507
0.7120637752
0.7304954998
0.7427810947
0.7463426061
0.7512144347
0.6567521241
0.7235692783
0.6778336394
0.7370752009
0.8758777562
0.7442020034
0.8106121241
0.7024836405
0.8054692244
0.9619655558
0.7031971379
0.9349126142
0.8821148628
0.9294991374
0.9630273313
0.7535423002
0.6591888832
0.6740686044
0.7268255234
0.9057465375
0.9563538441
0.7571495741
0.8476002923
0.6861812567
0.7356490424
0.8417091748
0.7534068920
0.7498738210
0.7475125070
0.9645577164
0.7345229644
0.6759753895
0.9118413447
0.6398387328
0.6528047701
0.6907326608
0.9662433355
0.7202394134
0.7650430061
0.9592150132
0.7422445432
0.7194535975
0.7116222836
0.7418569744
0.9810058666
0.7410052516
0.6507789088
0.6495512009
0.7353065924
0.7451715907
0.7717937378
0.7330180839
0.7690038894
0.6664874308
0.6930914819
0.6792843662
0.8331605293
0.7419869535
0.6441431439
0.7071272253
0.6551027268
0.7419905373
0.7241839085
0.9800380070
0.9266576431
0.8995551451
0.7207799060
0.6640315952
0.7393671970
0.7577720440
0.7288782763
0.6860534844
0.7438218516
0.7383886936
0.6560641906
0.6794900675
0.7963319027
0.6956165952
0.6481412265
0.7338875806
0.6713144670
0.8693837789
0.7502913629
0.7459017745
0.7945439866
0.7408066354
0.6536246733
0.6354640980
0.6435220208
0.9285158698
0.7538383264
0.7539263111
0.7042189320
0.7398242816
0.9643835301
0.7607999398
0.6891005605
0.6737220053
0.7615419920
0.7374528175
0.7645369349
0.7027016714
0.7093244045
0.7962075357
0.7421089745
0.7432116802
0.6255898560
0.6835268993
0.7574316813
0.9020702658
0.7815812830
0.6543763026
0.8327748087
0.6680454680
0.7264594623
0.7210418617
0.7752140520
0.7525747180
0.7372111356
0.9662250908
0.6436231751
0.7214221380
0.6435214054
0.7697029815
0.7782998597
0.7203443189
0.7829669212
0.9589348989
0.6638481153
0.8673043167
0.7386789424
0.7566424928
0.7188916261
0.6856213297
0.6553777244
0.6918742241
0.9300451591
0.7401339744
0.7898549945
0.7372300584
0.7155091242
0.6416789938
0.6870610940
0.7972371595
0.8083487471
0.9696523362
0.9765752263
0.9657470345
0.6601871852
0.9013936052
0.7389337925
0.8337095782
0.8127250851
0.7409285441
0.9487929130
0.7040563368
0.9282947648
0.6983504819
0.6451250689
0.8040290928
0.9642195238
0.9800350593
0.8680077856
0.8292757702
0.8250102351
0.7301642190
0.9631187687
0.8145905677
0.8114033347
0.8477608932
0.8995601865
0.7207911634
0.7505007292
0.6701349866
0.9711925369
0.6442454721
0.7635667974
0.9487889937
0.6846960429
0.7805950429
0.7898797928
0.6134897791
0.9696431264
0.7717721960
0.6493594949
0.9753944829
0.8023271060
0.6847119441
0.7056508454
0.6936868250
0.7444410789
0.8790295567
0.7924527744
0.9759642706
0.7435040283
0.6308418568
0.6934072316
0.7662767183
0.8673208684
0.7369063819
0.9402231766
0.9300475769
0.7216746413
0.9642157718
0.8292985965
0.9711771423
0.6308464243
0.6601934544
0.7617183914
0.9074369671
0.9743170698
0.8408647482
0.8415002675
0.9772102971
0.7155312480
0.8019548324
0.9325567954
0.7745227145
0.8765702988
0.9121688063
0.6468724489
0.9704585521
0.6163132992
0.6650339660
0.9511062663
0.7791749781
0.7734157268
0.7270868536
0.9635630638
0.7783236835
0.9014018140
0.6829428078
0.7421409980
0.7505276547
0.6856107965
0.7855210534
0.7372778348
0.7636365937
0.7474440957
0.8041161924
0.7657429838
0.6536077818
0.9800281955
0.6407928070
0.6268731472
0.7806018650
0.7279696654
0.8417838414
0.7210738468
0.8145948669
0.9788801321
0.6985632926
0.9377996696
0.7432624919
0.7338695852
0.6680302481
0.9661932940
0.7398932854
0.7281845144
0.8814028412
0.6816347844
0.9458512357
0.6436079193
0.6924990282
0.9795917636
0.8077752860
0.7680272414
0.6587332163
0.7656504098
0.8066671285
0.8775510577
0.7042245591
0.9121037898
0.8012478771
0.8268120489
0.7459318924
0.9869082803
0.8407786369
0.9600232010
0.8254553635
0.9794856353
0.6268744753
0.9102534264
0.7975489638
0.9402282562
0.7636632293
0.6934235637
0.8790399757
0.7665124238
0.6013184555
0.9733748444
0.9753867572
0.8038194027
0.9907895260
0.8606665662
0.9704581244
0.9356953632
0.8012516104
0.9786230622
0.9069934940
0.6650396169
0.8023472675
0.7271084179
0.9121756406
0.8494850643
0.8576638296
0.8300416410
0.7697358955
0.9743040140
0.8393759820
0.7608593381
0.7181794808
0.7977305741
0.8190534914
0.6468772540
0.8782403894
0.8233423845
0.9983840194
0.8291185002
0.9776456480
0.9275002833
1.0071067440
0.7544401418
0.6857725760
0.8415158029
0.8363044423
0.8651873474
0.9812951438
0.9513737167
0.8139395688
0.8581006899
0.8508665088
0.8193200247
0.9964598694
0.7917283966
0.9682241393
0.8985394429
0.8346658881
0.8346428719
0.7216820578
0.8748148794
0.7614257122
0.9600466918
0.8569350486
0.9662257554
0.9426084847
0.8662520365
0.8730499825
0.8094013810
0.8492768433
0.8713920730
0.8859616558
0.9095002117
0.9842667527
0.8779100707
0.8661155769
0.8786426159
0.9186509884
0.9446350950
0.9920560425
0.9834454443
0.9674657689
0.8774962648
0.8842134502
0.8429614740
0.8641198901
1.0074358464
0.8852718289
0.8792734878
0.9919591841
0.8576533904
0.8516800613
0.9869093346
0.8806930921
0.8765725621
0.8650366008
0.9590690535
0.9421500138
0.8810758914
0.9794872954
0.8769797624
0.8516099885
0.9635639021
0.8432112460
0.9730903845
0.9782411328
0.8433215443
0.8232496469
0.9793480102
0.9563679722
0.9622581747
0.9622618170
0.9563508002
0.9698745716
0.9708672975
0.9676289177
0.9655357951
0.9649298530
0.9710616378
0.9662136078
0.9649316275
0.9673601292
0.9589195687
0.9669400323
0.9633846806
0.9655455796
0.9698750065
0.9541101217
0.9549290582
0.9687120100
0.9694518647
0.9469112860
0.9649290491
0.9420752142
0.9714608672
0.9605327234
0.9384614151
0.9701245498
0.9589476235
0.9400908364
0.9459985548
0.9713683523
0.9229793903
0.9387846149
0.9633944029
0.9682883759
0.9541303091
0.9721156904
0.9187332803
0.9506155815
0.9053940835
0.9682989172
0.8917789624
0.9710681388
0.9332655382
0.9157788769
0.9103516504
0.9714586634
0.9421033616
0.9603237363
0.9671938413
0.9693060122
0.9713693275
0.9406523328
0.9502500552
0.9295314448
0.9691397595
0.9401118971
0.9709691656
0.9387895742
0.9282156570
0.9368866150
0.9520222672
0.9230211857
0.9653448148
0.9698040259
0.9305856646
0.9269258352
0.9694159941
0.9540032052
0.9482546241
0.8913907360
0.9017744416
0.9621074477
0.9500340776
0.8917562473
0.9592374188
0.9555000235
0.9054568672
0.9473661239
0.9502321760
0.7526735379
0.7745534834
0.9282168276
0.9691428978
0.9650728221
0.9368762977
0.9631535060
0.9237578999
0.9165701657
0.9559001299
0.9584373546
0.7744897120
0.7639877712
0.9471010500
0.9662793886
0.9600108487
0.9592157917
0.9405059168
0.9325361088
0.9357929398
0.8573694542
0.9235108338
0.9627322296
0.8839772992
0.9169604049
0.8669953607
0.9064581414
0.9621086178
0.8826267995
0.9554963335
0.9546966944
0.9297150405
0.9132827975
0.8596732928
0.8930997046
0.8913623806
0.9021094675
0.8993955341
0.9621780061
0.9500590027
0.9153625405
0.9650799529
0.9558897493
0.9051419511
0.9470615292
0.7683860474
0.9522716342
0.7418681908
0.7618742954
0.9536363719
0.7744496507
0.9343777886
0.9110363040
0.7586994435
0.9419303234
0.7526316975
0.7499045738
0.8838880082
0.8996865201
0.9020774671
0.8656357678
0.8594673713
0.9160472523
0.9382969827
0.9234080362
0.8284484518
0.8669048424
0.9404832161
0.9621739792
0.9555074027
0.9620068527
0.8987781692
0.9169511794
0.8826347938
0.8861441687
0.9188186555
0.8928500361
0.8670787801
0.8913564090
0.9324903002
0.9190906987
0.8571781698
0.9293900036
0.9063870610
0.8580995195
0.7682971387
0.9380007507
0.8983939397
0.9418662832
0.8478016603
0.9522334697
0.8540954226
0.7362046505
0.8428483763
0.7723422159
0.9214796927
0.7664153506
0.7413145717
0.9462157940
0.8699550597
0.8675157124
0.8791705818
0.9434809808
0.7418819084
0.8359459148
0.7400717689
0.9051967574
0.7752221711
0.9187686568
0.8695222924
0.7554224494
0.8656282567
0.8927562411
0.8280834158
0.9554660341
0.8315312312
0.7371564049
0.9382430430
0.8729765572
0.8669677071
0.8231183022
0.8285870291
0.7437867061
0.8742929503
0.8987513484
0.8428118690
0.7751153043
0.8889437549
0.8675228368
0.8581383371
0.7876310172
0.8345265830
0.9462133594
0.9548515005
0.9434092243
0.7722934512
0.8504562469
0.8764194278
0.8396665224
0.7670893202
0.8525589206
0.8451412131
0.9403888511
0.7362516545
0.9589574493
0.7618104301
0.8479007832
0.8230729539
0.8197230815
0.7331665642
0.9483649750
0.7745827451
0.8238134767
0.8057359141
0.8403225684
0.8632609776
0.7476955213
0.7950975691
0.7580261511
0.8189166182
0.7857721609
0.9261069515
0.8029224202
0.8176607842
0.7372097959
0.8021640741
0.8394318080
0.7851015120
0.7281427556
0.8888462543
0.9548660264
0.8343562320
0.7841697238
0.9638326599
0.8062087901
0.8044118492
0.9579934298
0.7844125236
0.8265631598
0.7254624592
0.9661589328
0.7937976244
0.9483737787
0.7949852508
0.7979983894
0.7648299818
0.9444840925
0.9261098219
0.8056607695
0.8104239054
0.9643946569
0.7332394109
0.8116433131
0.9670612009
0.8092002212
0.8237286693
0.8213155595
0.7856638159
0.8076307972
0.9655805594
0.8067517326
0.7222110868
0.8170135449
0.7849978463
0.7840688929
0.9526367031
0.8169877077
0.7760882261
0.8332391473
0.7956183139
0.7282711927
0.8178696067
0.9631916139
0.8252405761
0.7947651010
0.9656206906
0.9487644738
0.8131888200
0.8433002360
0.9444978135
0.9670611427
0.9213136974
0.9630473385
0.7936717774
0.8066985523
0.9655838284
0.9660979076
0.7943426214
0.7281684085
0.7255580076
0.9669305987
0.8181929231
0.9011912830
0.9641289537
0.8024248264
0.8127802904
0.9665596960
0.9357664497
0.8223530749
0.8055047036
0.9663750818
0.8051727527
0.8332155779
0.9433211457
0.8205932836
0.8116430544
0.7288948792
0.7759570149
0.8114160619
0.8147066753
0.8117345602
0.9676220499
0.9556946685
0.8355292265
0.9656266943
0.7222893636
0.9526181287
0.8169751383
0.8069213461
0.8252077371
0.8051615847
0.8256514504
0.8169416016
0.8154343569
0.9582261552
0.8001206533
0.9676236184
0.7477510388
0.9641363091
0.9660975357
0.7853502931
0.8107858293
0.8082694826
0.8936216190
0.7982977202
0.9292612105
0.9642696379
0.7942942529
0.9665660131
0.7282048670
0.9664342680
0.9663750193
0.8017761217
0.8223169113
0.8781363787
0.8292903470
0.9136575770
0.8066734443
0.9672245314
0.9685780093
0.8067696639
0.8134427695
0.9556874726
0.7450433132
0.8115997882
0.9666377479
0.9676297762
0.7289247787
0.9711422864
0.8113417940
0.8125628820
0.9605558631
0.8256253604
0.8480673072
0.7684471133
0.8073834989
0.8710746057
0.9672207103
0.7852821818
0.7829247220
0.9664257273
0.8082452572
0.8292726297
0.7920328119
0.9694734904
0.8107526091
0.7478397250
0.9676297591
0.8088913107
0.8220279222
0.9645763374
0.7929131437
0.8259776350
0.7877088931
0.9680375691
0.7555612332
0.8034637481
0.9697370348
0.9708104311
0.8535163638
0.8022341649
0.7451696373
0.9683959529
0.9712746704
0.9666413932
0.8042826330
0.7996578073
0.8083742709
0.9626654343
0.9694676847
0.9676269020
0.9700015329
0.7876680069
0.7919600771
0.9644240890
0.7745823360
0.8288843086
0.8219974609
0.8081420882
0.7686526423
0.9695436947
0.9705563169
0.7797436978
0.9633508003
0.7794169256
0.8049035682
0.7911706381
0.8034386354
0.9705030593
0.7996292463
0.7968441068
0.7939989914
0.7707215492
0.9714088218
0.8057047263
0.7468258321
0.9643773279
0.9046330713
0.9579041393
0.9416272878
0.7819550740
0.9705496320
0.7302623568
0.9683613020
0.8492669208
0.9556739739
0.9626614111
0.7625701599
0.9696551863
0.9689363505
0.7744835215
0.9595646254
0.9669591325
0.9257161881
0.9531727871
0.7366524125
0.8781335391
0.9602216577
0.7897024900
0.9695361410
0.9680534009
0.9644137849
0.7838133941
0.7090497683
0.7545382125
0.7968143994
0.7362838401
0.8194251353
0.7939659239
0.7184558856
0.7114880884
0.7681090568
0.7521571185
0.7659422617
0.7102846858
0.7007727785
0.7447314983
0.7872917096
0.7273610821
0.7129314313
0.7722084177
0.7574953455
0.7632581933
0.7115279164
0.7855382971
0.8877364695
0.9520782402
0.9673288283
0.8238480018
0.7276901620
0.9556564137
0.7303503179
0.9578933761
0.9666237896
0.6906689122
0.9343099300
0.9627225600
0.9683521977
0.8678989828
0.9468233067
0.9155864351
0.9646720753
0.8123145185
0.9140170694
0.9577127537
0.9689274858
0.8573294094
0.7577255443
0.9610446843
0.7583152145
0.6992543422
0.9483726819
0.9651604777
0.8937339345
0.9531528665
0.9332672824
0.9669474611
0.7320315816
0.7902049194
0.6744639163
0.6778099948
0.6935584865
0.7119422133
0.7198402921
0.7573984026
0.7716204465
0.7535640491
0.7214097677
0.7803664471
0.7519097138
0.7303969581
0.7428200645
0.8401602898
0.7837822873
0.7505410326
0.7152027553
0.7227716626
0.6679853957
0.6861244138
0.7018893853
0.7218949523
0.7256989308
0.7587017385
0.7658525086
0.7570011321
0.7090988740
0.7763347581
0.7495909959
0.7373284553
0.7459594924
0.7414637596
0.7139806797
0.8758616860
0.9497033121
0.9625794865
0.9666117753
0.9619844494
0.9006961266
0.7482470775
0.6653744461
0.9295180087
0.6906858606
0.9406905310
0.8054125446
0.7031705750
0.8426009350
0.9520560737
0.9057530660
0.9563735836
0.9651455706
0.9640711712
0.9236861498
0.7785961944
0.6759753267
0.9462315472
0.7180308598
0.9483466611
0.8416684568
0.7344752691
0.8732026741
0.9586022424
0.6560929816
0.7076087092
0.6794734359
0.7649684351
0.6835759364
0.7393236090
0.7257197645
0.7689447130
0.7407815881
0.7459412094
0.7438324994
0.7437983289
0.6553465810
0.8104498361
0.7070438354
0.6962696517
0.7287932599
0.7565973127
0.6664958490
0.7005687306
0.6930420877
0.7606450253
0.6744501680
0.7415546320
0.7166712399
0.7338165895
0.7467004335
0.7418329260
0.7451844914
0.6495845611
0.7193586297
0.6914126717
0.7352391673
0.7518681808
0.7502482708
0.6737240201
0.6527861701
0.7407936866
0.8889481438
0.9496825332
0.7450944742
0.7616751169
0.7945068757
0.6687186546
0.6890824667
0.8227316543
0.7402737989
0.7538090768
0.7513356393
0.9615386749
0.7196510959
0.6653660620
0.9285220381
0.8693660192
0.9361456386
0.6481453080
0.6393444943
0.7093309869
0.9643990947
0.7039046886
0.7611939619
0.9504931603
0.7517330832
0.6600273263
0.6638454166
0.7317540019
0.9157447268
0.9574847870
0.7404441062
0.7603963907
0.8327438670
0.6850138269
0.7213922284
0.8572813171
0.7513890661
0.7510138100
0.7443888918
0.9640535778
0.7531698532
0.6898807438
0.9474973709
0.9020669399
0.9462102460
0.6403849638
0.6512469967
0.6956587327
0.9644659661
0.7230149822
0.7635404133
0.9589475298
0.8072258946
0.7388823756
0.6467980843
0.7236582204
0.6848291268
0.7418768529
0.7040189892
0.7463526118
0.9765750228
0.9791556493
0.9095854166
0.7408773572
0.9282933770
0.7605990192
0.6451534714
0.7411601775
0.6567153182
0.7280509071
0.7371334733
0.6619352488
0.7512249422
0.7566062005
0.7301131444
0.7878085847
0.6771078897
0.7013733909
0.8375696061
0.6701517956
0.8477528584
0.7386368516
0.6416975661
0.7133519004
0.6587269951
0.7400833924
0.7188087042
0.7438372939
0.9822026622
0.9819716671
0.9352536037
0.7417084713
0.9108658929
0.7287760268
0.6554052030
0.7414669661
0.6553235461
0.7680172773
0.7315657103
0.6918660594
0.7489575881
0.7371735417
0.6667361659
0.6888162180
0.8083382092
0.6870546284
0.6479002726
0.7894200351
0.7374335111
0.7448068252
0.6493600699
0.6687200529
0.7056421727
0.7362267203
0.8821261796
0.7483980862
0.7691665354
0.7455717585
0.7483518932
0.6196660919
0.8106514011
0.7441805377
0.6587543064
0.6393426594
0.6768308776
0.6425253359
0.6961854714
0.9349038194
0.7530664771
0.7513868303
0.7115056018
0.7791559538
0.7441651720
0.7662682068
0.7408411134
0.9630093112
0.6406087340
0.7612109108
0.7025133442
0.6398337566
0.6354669619
0.7744875351
0.7733829061
0.6768191842
0.7368987598
0.7656805022
0.7402829134
0.7617041448
0.7893402303
0.9504806510
0.6527802405
0.7039061023
0.7149210082
0.7538746447
0.6591886701
0.7920171646
0.7432025216
0.7607859798
0.7430126144
0.6326012631
0.6528037598
0.6814067938
0.7532108897
0.9118396927
0.7451520428
0.7838878967
0.7455157492
0.6397543743
0.8476273718
0.7498886329
0.6747776883
0.6384228270
0.6384216977
0.7192451491
0.9474870597
0.7535698043
0.7571911577
0.7267975822
0.7740329822
0.7528160548
0.7381008244
0.9644475935
0.6458429882
0.7026970465
0.7534264429
0.7356917443
0.6425258391
0.7664736392
0.7742817971
0.6907302413
0.7175717063
0.7582331203
0.7230141809
0.7635707883
0.7890493551
0.9591995891
0.6740799970
0.6850144948
0.7268319920
0.8798863349
0.7420085621
0.8254415028
0.8066459708
0.7417502463
0.7718398287
0.9657505834
0.7242456585
0.9108679937
0.7474367823
0.6933043264
0.6640127084
0.6860620315
0.8077532487
0.9546781345
0.9791539590
0.9371835685
0.7420263485
0.8722637497
0.8037979566
0.8233254354
0.7384500705
0.9544255467
0.7931723048
0.8146576723
0.8072424792
0.9266618070
0.6927238616
0.6927336761
0.7282861248
0.6441109729
0.6956567483
0.7903206811
0.7963482676
0.7218963795
0.9680406042
0.9810038231
0.6408050061
0.7170953568
0.9691026541
0.9482256480
0.6677553223
0.9739289887
0.7929891260
0.9117932201
0.7422796719
0.8267964985
0.8061861317
0.7410556565
0.9569290021
0.7116844089
0.9352559377
0.7091856199
0.6507423741
0.7219048519
0.7977057576
0.9649637645
0.9819670290
0.9514551863
0.7419158207
0.8813982759
0.8426719616
0.8171689992
0.7330782331
0.9691046653
0.8074761241
0.8067329722
0.8331753695
0.9095902230
0.7287857889
0.8440947010
0.7647784554
0.6467906134
0.6792904573
0.7857665190
0.8375754805
0.9677000849
0.9821980175
0.9357969682
0.6482815109
0.7627417041
0.9726620273
0.9544228890
0.6954052084
0.7730770488
0.6907358532
0.9546754685
0.8038252764
0.6196670160
0.9680272655
0.7691693398
0.6255901649
0.6482758461
0.8021571430
0.6566680004
0.9375229843
0.9753323832
0.8790335221
0.7687788664
0.7884257793
0.6999698699
0.9766615088
0.6954269031
0.7687115590
0.6999774663
0.6956504218
0.6961914180
0.9142509633
0.7530402636
0.7405145290
0.6134868801
0.6403818522
0.7688151952
0.8485381846
0.8642989544
0.7894380166
0.7510449110
0.6253406642
0.9716405171
0.6479062848
0.9592056478
0.7362363065
0.7202430018
0.6304267604
0.6454714982
0.7645063841
0.6462227534
0.9679303347
0.7442688268
0.7945871007
0.6512451179
0.7660604713
0.7801687804
0.6847644196
0.9551004610
0.7660733720
0.7766103927
0.8798985190
0.7208775455
0.7361247216
0.9302568834
0.9371840699
0.7650611298
0.7283543267
0.9649560933
0.8426927760
0.6217220464
0.9676835190
0.7532164909
0.6304293004
0.7434941747
0.6677622358
0.7684990912
0.6835313935
0.9181688429
0.9772025632
0.8492720928
0.8272877074
0.9773123386
0.7283155850
0.8093688190
0.6713126814
0.7203546327
0.6543768316
0.9421487298
0.7475625107
0.7924372364
0.7657200284
0.8860394516
0.8995036131
0.7815934036
0.6542087052
0.9760981719
0.9674094478
0.7192543127
0.7801373453
0.6217177498
0.6233647977
0.6591605969
0.9590677701
0.7920378397
0.7829971748
0.7159120763
0.9694227660
0.7752301396
0.7893636433
0.9117979119
0.6899415938
0.7525763515
0.9529346562
0.9514546379
0.7432450790
0.7648098351