<VTKFile type="UnstructuredGrid" version="0.1">
	<UnstructuredGrid>
		<Piece NumberOfPoints="1862" NumberOfCells="3498">
			<CellData>
				<DataArray type="Int32" Name="type" NumberOfComponents="1" Format="ascii">
0
0
0
0
0
0
0
0
0
0
0
0
0
0
0
0
1
0
0
1
0
0
0
0
0
0
0
0
0
0
0
0
0
1
0
0
0
0
0
0
0
0
0
0
0
0
0
0
0
0
1
0
0
0
0
0
0
0
0
0
0
1
0
0
0
0
0
0
0
0
0
0
0
0
0
0
0
0
0
0
0
0
0
0
0
0
0
0
0
0
0
0
0
0
0
0
0
0
0
0
0
0
0
0
0
0
0
0
0
0
0
0
0
0
0
0
0
0
0
0
0
0
0
1
0
0
0
0
0
0
0
0
0
0
0
0
0
0
0
0
0
0
0
0
0
0
0
0
0
0
0
1
0
1
1
0
0
0
0
0
0
0
0
0
0
0
0
0
1
0
1
0
0
0
0
1
0
0
0
0
0
0
0
0
1
1
0
0
0
0
0
1
0
0
0
0
0
0
0
0
1
0
0
0
0
0
0
0
0
0
0
0
0
0
0
0
0
0
0
0
0
0
0
0
0
0
0
0
0
0
0
0
0
1
0
0
0
0
0
0
0
0
0
0
0
0
0
0
0
0
0
0
0
0
0
0
0
0
0
0
0
0
0
0
0
0
0
0
0
0
0
0
0
0
0
0
0
0
0
0
0
1
0
0
0
0
0
0
0
0
0
0
0
0
0
0
0
0
0
0
0
0
0
0
0
0
0
0
0
0
0
0
0
0
0
0
0
0
0
0
0
0
0
0
0
0
0
0
0
0
0
0
1
0
0
0
0
0
0
0
0
0
0
0
0
0
0
0
0
0
0
0
0
0
0
0
0
0
0
0
0
0
0
0
0
0
0
0
0
0
0
0
0
0
0
0
0
0
0
0
0
0
0
0
0
0
0
0
0
0
1
0
0
0
0
0
0
0
0
0
0
0
0
0
0
0
0
0
0
0
0
0
0
0
0
0
0
0
0
0
0
0
0
0
0
0
0
0
0
0
0
0
0
0
0
0
0
0
0
0
0
0
0
0
0
0
0
0
0
0
0
0
0
0
0
0
0
0
0
0
0
0
0
0
0
0
0
0
0
0
0
0
0
0
0
0
0
0
0
0
0
0
0
0
0
0
0
0
0
0
0
0
0
0
0
0
0
0
0
0
0
0
0
0
0
0
0
0
0
0
0
0
0
0
0
0
0
0
0
0
0
0
0
1
0
0
0
0
0
0
0
0
0
0
0
0
0
0
0
0
0
0
0
1
0
0
0
0
0
0
0
0
0
0
0
0
0
0
0
0
0
0
0
0
0
0
0
0
0
0
0
0
0
0
0
0
0
0
0
0
0
0
0
0
0
0
0
0
0
0
0
0
0
0
0
0
0
1
0
0
0
0
0
0
0
0
0
0
0
0
0
0
0
0
0
0
0
0
0
0
0
1
0
0
0
0
0
0
0
0
0
0
0
0
0
0
0
0
0
0
0
1
0
0
0
1
0
0
0
0
0
0
0
0
0
0
0
0
0
0
0
0
0
0
0
0
0
0
0
0
0
1
0
0
0
0
0
0
0
1
0
0
0
0
0
0
0
0
0
0
0
0
0
0
0
0
0
0
0
0
0
0
0
0
0
0
1
0
0
0
0
0
0
0
1
0
0
0
0
0
0
1
0
0
0
0
0
0
0
0
0
0
0
0
0
0
0
0
0
0
0
0
0
0
0
0
0
0
0
0
0
0
0
0
0
0
0
0
0
0
1
0
0
0
0
0
1
0
0
0
0
0
0
0
1
0
0
0
0
0
0
0
0
0
0
0
0
0
1
0
0
0
0
0
0
0
0
0
0
0
0
0
0
0
0
0
0
0
0
0
0
0
0
0
0
0
0
0
0
0
0
0
0
0
0
0
0
0
0
0
0
0
0
0
0
0
0
0
0
0
0
0
1
0
0
0
0
0
0
0
0
0
0
0
0
0
0
0
0
0
0
0
1
0
0
0
0
0
0
0
0
0
1
0
0
0
0
0
0
0
0
0
0
0
0
0
0
0
0
0
0
0
0
0
0
0
0
0
0
0
0
0
1
0
1
0
0
0
0
0
0
0
0
0
0
0
0
0
0
0
0
0
0
0
0
0
0
0
0
0
0
0
1
0
0
0
1
0
0
0
0
0
0
0
0
0
0
0
0
0
0
0
0
0
0
0
0
0
0
0
0
0
0
0
0
1
0
0
0
0
0
0
0
0
0
0
0
0
0
0
0
0
0
0
0
0
0
0
0
0
0
1
0
0
0
0
0
0
0
0
0
0
0
0
0
0
0
0
0
0
0
0
0
0
0
1
0
0
0
0
0
0
1
0
0
0
0
0
0
0
0
0
0
0
1
0
0
0
0
0
0
0
0
0
0
0
0
0
0
0
0
0
0
0
0
1
0
0
0
0
0
0
0
0
0
0
0
1
0
0
0
0
0
0
0
0
0
0
0
0
0
0
0
0
0
0
0
0
0
1
0
0
0
0
0
0
0
0
0
1
1
0
1
0
1
0
0
0
0
0
0
0
0
0
0
0
1
0
0
0
0
0
1
1
0
0
0
0
0
0
1
0
0
0
0
0
1
1
1
0
0
0
0
0
0
0
0
0
0
0
0
1
1
0
0
1
0
0
0
0
0
1
0
0
0
1
0
1
0
0
0
0
0
0
0
1
0
0
0
0
0
0
0
1
0
0
1
0
0
0
0
0
0
0
0
0
0
0
0
0
0
0
1
0
0
0
0
0
0
0
0
0
0
0
0
0
0
0
0
0
0
0
0
0
0
0
0
0
0
0
0
0
0
0
0
0
0
0
0
1
0
0
0
0
0
0
1
0
0
0
1
0
0
0
0
0
0
0
0
0
0
0
1
0
0
0
0
0
0
0
0
0
0
0
0
0
0
0
0
0
0
0
0
0
0
0
0
0
0
0
0
0
0
0
0
0
0
0
0
0
0
0
0
1
1
0
0
0
0
0
0
0
0
0
0
0
0
0
1
0
0
0
0
0
0
0
0
0
0
0
0
0
0
0
0
0
0
0
0
0
0
0
0
0
0
0
0
0
0
0
0
0
0
0
0
0
0
0
0
0
0
0
0
0
0
0
0
0
0
0
0
0
0
0
0
0
0
0
0
0
0
0
0
0
0
0
0
0
0
0
0
1
1
0
0
0
0
0
0
0
0
1
0
0
0
0
0
0
0
0
0
0
0
0
0
0
0
0
0
0
0
0
0
0
0
1
0
0
0
0
0
0
0
0
0
0
0
0
0
0
0
0
1
0
0
0
0
0
0
0
0
0
0
0
0
0
0
0
0
0
0
0
0
0
0
0
0
0
0
0
0
0
0
0
0
0
0
0
0
0
0
0
0
0
0
0
0
0
0
0
0
0
0
0
0
0
0
0
0
0
0
0
0
0
0
0
0
0
0
0
0
0
0
0
0
0
0
0
0
0
0
0
0
0
0
0
0
0
0
0
0
0
0
1
1
0
0
0
0
0
1
0
0
0
0
0
0
0
0
0
0
0
0
1
0
0
0
0
0
0
0
0
0
0
0
0
0
0
0
0
0
0
0
0
0
0
0
0
0
0
0
0
0
0
0
0
0
0
0
0
0
0
0
0
0
0
0
0
0
0
0
0
0
0
0
0
0
1
0
1
0
0
0
0
0
0
0
0
0
0
0
0
0
0
0
0
0
0
1
0
0
0
0
0
0
0
0
0
0
0
0
0
0
0
0
0
0
0
0
0
0
0
0
0
0
0
0
0
0
0
0
0
0
0
0
0
0
0
0
0
0
0
0
0
0
0
0
0
0
0
0
0
0
0
0
0
0
0
0
0
0
0
0
0
0
0
0
0
0
1
0
0
0
0
0
0
0
0
0
0
1
0
0
0
0
0
0
0
0
0
0
0
0
0
0
0
0
0
0
0
0
0
0
0
0
0
0
0
0
0
0
0
0
0
0
0
0
0
1
0
0
0
0
0
0
0
0
0
0
0
0
0
0
0
0
0
0
0
0
0
0
0
0
0
0
0
0
0
0
0
0
0
0
0
0
0
0
0
0
0
0
0
0
0
0
0
0
0
0
0
0
0
0
0
0
0
0
0
0
0
0
0
0
0
0
0
0
0
0
0
0
0
0
0
0
0
0
0
0
0
1
0
0
0
0
0
0
0
0
0
0
0
0
0
0
0
0
0
0
0
0
0
0
0
0
0
0
0
0
0
0
0
0
0
0
0
0
0
0
0
0
0
0
0
0
0
0
0
0
0
0
0
0
0
0
0
0
0
0
0
0
0
0
0
0
0
0
0
0
0
0
0
0
0
0
0
0
0
0
0
0
0
0
0
0
0
0
0
0
0
0
0
0
0
0
0
0
0
0
0
0
0
0
0
0
0
0
0
0
0
0
0
0
0
0
0
0
0
0
0
0
0
0
0
1
0
0
0
0
0
0
0
0
0
0
0
0
0
0
0
0
0
0
0
0
0
0
0
0
0
0
0
0
0
0
0
0
0
0
0
0
0
0
0
0
0
0
0
0
0
0
0
0
0
0
0
0
0
0
0
0
0
0
0
0
0
0
0
0
0
0
0
0
0
0
0
0
0
0
0
0
0
0
0
0
0
1
0
0
0
0
0
0
0
1
0
0
0
0
0
0
0
0
0
0
0
0
0
0
0
0
0
0
0
0
0
0
0
0
0
0
0
0
0
0
0
0
0
0
0
0
0
1
0
0
0
0
0
0
0
0
0
0
0
0
0
0
0
0
0
0
0
0
0
1
0
0
0
0
0
0
0
0
0
0
0
0
1
1
0
0
0
0
0
0
0
0
0
0
0
0
0
0
0
1
1
0
1
0
0
0
0
0
0
0
0
0
1
0
0
0
0
0
0
1
0
0
0
0
0
0
0
0
0
0
1
0
0
0
0
1
0
1
0
0
0
0
0
0
0
1
0
0
0
1
0
0
0
1
0
1
1
0
0
1
1
0
0
0
1
0
0
0
1
0
0
0
0
0
0
0
0
0
1
0
0
0
0
0
0
1
0
0
0
0
0
0
0
0
0
0
0
0
0
0
0
0
0
0
0
0
0
0
0
0
0
0
0
1
0
0
1
0
0
0
0
0
0
0
0
0
0
0
0
0
0
0
0
0
0
1
0
0
1
0
0
0
0
0
0
0
0
0
0
0
1
0
0
1
0
0
0
0
0
0
0
0
0
0
0
1
1
0
0
0
0
0
0
0
0
0
0
0
0
1
0
0
0
0
0
0
0
0
0
0
0
0
0
0
0
0
0
1
0
0
0
0
0
0
0
0
0
0
0
0
0
0
0
0
0
1
0
0
0
0
0
0
0
0
0
0
0
0
0
0
0
0
0
0
0
0
0
0
0
0
0
0
0
0
0
0
0
0
0
0
0
0
0
0
0
0
1
0
0
0
0
0
0
0
0
0
0
0
0
0
0
0
0
0
0
0
0
0
0
0
0
0
0
0
0
0
0
0
0
0
0
0
0
0
0
0
0
0
0
0
0
0
1
0
0
0
0
0
0
0
0
0
0
0
0
0
0
0
0
0
0
0
0
0
0
0
0
0
0
0
0
0
0
0
0
0
0
0
0
0
0
0
0
0
0
0
0
0
0
0
1
0
0
0
0
0
0
0
0
0
0
1
0
0
0
0
0
0
0
0
0
0
0
0
0
0
0
1
0
0
1
0
0
0
0
0
0
0
0
0
0
0
0
0
0
0
0
0
0
0
0
0
0
0
1
0
0
0
0
0
0
0
0
0
0
0
0
0
0
0
0
0
0
0
0
0
0
0
0
0
0
0
0
0
0
0
0
0
0
0
1
0
0
0
0
0
0
0
0
0
0
0
0
0
0
0
0
0
0
0
0
0
0
0
0
0
0
0
0
0
0
0
0
0
0
0
0
0
0
0
0
0
0
0
0
0
0
0
0
0
0
0
0
0
0
0
0
0
0
0
0
0
0
0
0
0
0
0
0
0
0
0
0
0
0
0
0
1
0
0
0
0
0
0
0
0
0
0
0
0
0
0
0
0
0
0
0
0
0
0
0
0
0
0
0
0
0
0
0
0
0
0
0
0
0
0
0
1
0
0
0
0
0
0
0
0
0
0
0
0
1
1
0
0
0
0
0
0
0
0
0
0
0
0
0
0
0
0
0
0
0
0
0
0
0
0
0
0
0
0
0
0
0
0
0
0
0
0
0
0
0
0
0
0
0
0
0
0
0
0
0
0
0
0
0
0
0
0
0
0
0
0
0
0
0
0
0
0
0
0
0
0
0
0
0
0
0
0
0
0
0
0
0
0
0
0
0
0
0
0
0
0
0
0
0
0
0
0
0
0
0
0
0
1
0
1
0
0
0
0
0
0
0
1
1
1
1
0
0
0
0
0
0
0
0
0
0
0
0
0
0
0
0
0
0
0
0
0
0
0
0
0
0
0
0
1
1
0
0
0
0
0
0
0
0
0
0
0
0
0
0
0
0
0
0
1
0
0
0
0
0
0
0
1
1
0
1
1
0
0
1
0
0
0
0
0
0
0
1
0
1
0
0
0
0
0
0
0
0
0
0
0
0
0
0
0
0
0
0
0
0
0
0
0
0
0
0
0
1
1
0
0
0
1
1
0
0
0
0
1
0
0
1
0
1
0
0
0
0
0
1
0
0
0
1
0
0
0
0
0
0
0
0
0
0
0
0
0
0
0
0
0
0
0
0
0
0
0
0
0
0
0
1
0
0
0
0
0
0
1
0
0
0
0
0
0
0
0
0
0
0
0
0
0
0
0
0
0
0
0
0
0
0
0
0
0
0
0
0
1
0
1
0
0
0
0
0
0
0
1
0
0
0
0
0
0
0
0
0
0
0
1
0
0
0
0
0
0
0
0
0
1
0
0
0
0
0
0
0
1
0
0
0
0
0
0
0
1
0
0
0
0
0
0
0
0
0
0
0
0
0
0
0
0
0
0
0
1
0
1
0
0
0
0
0
1
0
0
0
0
0
0
0
0
0
0
0
0
0
0
0
0
0
0
0
0
0
0
0
0
0
1
0
1
0
0
0
0
0
0
0
0
0
1
0
0
0
0
0
1
0
0
0
0
0
0
0
0
0
0
0
0
0
0
0
1
0
0
0
0
0
0
0
0
1
0
0
0
0
0
0
0
0
0
0
0
0
0
0
0
0
0
0
0
0
0
0
0
0
0
0
0
0
0
0
1
0
0
0
0
0
0
0
0
0
0
0
0
0
0
0
0
1
0
0
0
0
0
0
0
0
1
0
0
0
0
0
0
0
0
0
1
0
0
0
0
0
1
0
0
0
0
0
0
0
0
0
0
0
0
0
0
0
0
0
0
0
1
0
0
0
0
0
0
1
0
0
0
0
0
0
0
0
1
0
0
0
0
0
0
0
0
0
0
0
0
0
0
1
0
0
1
0
0
0
1
0
0
0
0
0
0
0
0
0
0
0
0
0
0
0
0
1
0
0
0
0
0
0
0
0
0
0
1
0
1
0
0
0
0
0
0
1
0
0
0
0
0
0
0
0
0
0
0
0
0
0
0
0
0
0
0
0
0
0
0
0
0
0
0
1
1
0
0
0
0
0
0
1
0
0
0
0
0
0
0
0
0
0
0
0
0
1
0
0
0
0
0
0
0
1
0
0
0
0
0
0
0
0
0
0
0
0
0
0
0
0
0
0
0
0
0
0
0
0
0
0
0
1
0
0
0
0
0
0
0
0
0
0
1
0
0
1
0
0
0
0
0
0
0
0
0
0
0
0
0
0
0
0
0
0
0
0
0
0
0
0
0
0
0
0
0
1
0
0
0
0
0
0
0
1
0
0
0
0
0
0
0
1
0
0
0
0
1
0
0
0
0
0
0
0
0
0
0
0
1
0
1
0
0
0
1
0
				</DataArray>
				<DataArray type="Float64" Name="h" NumberOfComponents="1" Format="ascii">
0.5030664901
0.5030796360
0.5000342915
0.5000854606
0.5001331868
0.5000833253
0.5001492375
0.5011339930
0.5003341073
0.5027385680
0.5002008960
0.5000308573
0.5108242964
0.5002145145
0.5025411388
0.5501080953
0.5000181079
0.5062723168
0.5072793317
0.5000469995
0.5000056199
0.5339092104
0.5067887460
0.5000577848
0.5000386344
0.5616483445
0.5682461216
0.5053027952
0.5014607353
0.5004955419
0.5000930261
0.5028682454
0.5602457525
0.5000061350
0.5000030658
0.5002517894
0.5000024647
0.5245677480
0.5128152453
0.5000204282
0.5005694956
0.5006803496
0.5377121492
0.5060136507
0.5000888565
0.5043894951
0.5112300473
0.5000022149
0.5000001405
0.5000016238
0.5000023153
0.5010991633
0.5024171666
0.5000488677
0.5001629823
0.5941148703
0.5016488766
0.5000003683
0.5000017249
0.5000152454
0.5000000182
0.5000000110
0.5000001641
0.5003979727
0.5098576249
0.5024085413
0.5000153949
0.5000019363
0.5000000660
0.5000000366
0.5000006539
0.5000491813
0.5735095698
0.5000171597
0.5000052189
0.5685371177
0.5000009763
0.5000001525
0.5000006347
0.5266924148
0.5000000031
0.5009885061
0.5000000005
0.5000192748
0.5778540891
0.5176045749
0.5000000017
0.5001700761
0.5000004951
0.5000000084
0.5000000128
0.5349493787
0.5000000420
0.5000001191
0.5030942193
0.5073900592
0.5013819818
0.5453951729
0.5127927347
0.5000000052
0.5000000021
0.5000000009
0.5004403993
0.5000002138
0.5085825874
0.5001177374
0.5100662662
0.5000000374
0.5000004976
0.5011735030
0.5000004266
0.5000000333
0.5000000454
0.5000000454
0.5000559958
0.5000000001
0.5001577380
0.5021649483
0.5000000026
0.5000062032
0.5041092301
0.5004892348
0.5502823865
0.5002452750
0.5000001681
0.5000000098
0.5000189437
0.5009110185
0.5000000000
0.5000000002
0.5000000007
0.5038353678
0.5000019328
0.5000000000
0.5008815258
0.5000000028
0.5749660861
0.5000000000
0.5000000001
0.6061835099
0.5035266974
0.5002848901
0.5000000002
0.6205197324
0.5226878269
0.5000000009
0.5945974079
0.5000000000
0.5012613848
0.5000000000
0.5734794323
0.5000000000
0.5000000000
0.5000000000
0.5000000002
0.5000000000
0.5000000000
0.5095677795
0.5000000000
0.5027301873
0.6277867698
0.5000000000
0.5985740295
0.5052156095
0.5047873953
0.5000000000
0.6327620105
0.6115201706
0.5003558774
0.5000000000
0.5000000000
0.5005678974
0.5000000000
0.5167365121
0.6503563970
0.5000000000
0.6395728214
0.5000000000
0.5000000000
0.5095583389
0.5000000000
0.6596011049
0.5054731698
0.5631229063
0.5004222361
0.5004131323
0.6423635412
0.5000000000
0.5005840081
0.5005346679
0.6660400635
0.5000000000
0.5027323073
0.6488274496
0.5000000000
0.5000000000
0.5313203498
0.6671815117
0.6499102577
0.5000000000
0.5003618639
0.5315083441
0.5005738258
0.5000000000
0.6593431561
0.5293566967
0.6316356766
0.5945959147
0.6411203523
0.6530624802
0.6813756241
0.5012983717
0.5308013405
0.5259987404
0.6154271096
0.6858017423
0.6418898999
0.5477766153
0.6735355262
0.5101679417
0.6168990550
0.5000001110
0.6640039208
0.5000136651
0.5387063194
0.5000000000
0.5000000004
0.5008935767
0.6369795391
0.5000000077
0.5000000000
0.5000013434
0.5064488616
0.5000000000
0.5000000000
0.5001183446
0.6925359218
0.6480109317
0.5090796369
0.6706139256
0.6993697742
0.6247855718
0.5626674512
0.6655515467
0.6136430365
0.6420852760
0.5450017877
0.6851936837
0.6367046707
0.5863007107
0.6594915137
0.6911397613
0.5677527871
0.6971443177
0.7062699702
0.5563429019
0.6540627956
0.6300371200
0.5259963283
0.5000042721
0.6814638019
0.5951264447
0.5029011318
0.5000413805
0.5170915043
0.5000000000
0.5000000000
0.6805544532
0.5000000000
0.5000003527
0.5000000016
0.6764583260
0.5000000291
0.5003235231
0.5000401707
0.6886405774
0.5200675943
0.5003642493
0.5000041153
0.5821394663
0.5000000019
0.5000000000
0.5000000000
0.5000000000
0.5000000258
0.5000003841
0.5024776417
0.6578134717
0.5817401206
0.5972535346
0.6553595944
0.7079845841
0.6368838895
0.6336874726
0.6802439109
0.7103244368
0.6788167319
0.6470746422
0.6145929844
0.5563399417
0.5908582731
0.6441044770
0.6997925255
0.7177806735
0.7141098779
0.6689388780
0.7013738436
0.6671353032
0.6037803644
0.6680295555
0.5010347974
0.5086146331
0.5000000000
0.7100881752
0.5000000052
0.5000128656
0.6911817491
0.5000000943
0.5000000000
0.6899966956
0.5001207184
0.5480474365
0.5000010469
0.5000000000
0.5531391323
0.5079369478
0.5010849159
0.5000000000
0.5001214668
0.5000011875
0.5000000064
0.5000000000
0.5000000000
0.7169766186
0.5000119925
0.6599761430
0.5000000793
0.6632331175
0.5000000000
0.6862427623
0.7195879444
0.6883796735
0.6104965944
0.7183424362
0.6428985864
0.6619029811
0.6417594751
0.6198355346
0.5000000236
0.7319683947
0.7269642903
0.5006428812
0.6520011910
0.6239852301
0.5000000008
0.6735518807
0.7044852556
0.7099198068
0.6752227084
0.5000408215
0.5000049121
0.5000000000
0.5908574614
0.7098732637
0.7245962852
0.6516883548
0.7476733454
0.7453131341
0.5454254856
0.6162713948
0.5129728628
0.5000008067
0.6283134787
0.5000000000
0.5000372997
0.5003353850
0.5000000001
0.6057035399
0.5000000151
0.7056994491
0.7266379751
0.5000002819
0.5000000000
0.6984930090
0.5000029046
0.6997287022
0.6082691815
0.5030917089
0.5230306869
0.7018944578
0.5000000000
0.7311710141
0.5003585619
0.7585638764
0.5000000000
0.5000330858
0.5795932352
0.5941119220
0.6296639112
0.7540427109
0.6121279088
0.5000000199
0.7438643134
0.5000034620
0.7583269448
0.5000000000
0.5000002246
0.7004962439
0.5225745387
0.7266813452
0.5030280636
0.7434832024
0.5000247846
0.7430230190
0.6659425265
0.5000000014
0.5000001494
0.6950514243
0.5000592860
0.7098503639
0.7533784250
0.7534340216
0.6445816091
0.5000003613
0.5000000002
0.5025872340
0.5000000000
0.6257891783
0.5000108743
0.7274444027
0.6690174979
0.5000000001
0.5014105455
0.5000000532
0.5823361427
0.5060934235
0.5000030933
0.5000020434
0.5000000005
0.7570437955
0.7492781944
0.5403340555
0.6540226718
0.5001576473
0.7516418078
0.6798464470
0.6098237679
0.7401155794
0.5002684576
0.5000221668
0.5028127099
0.5000000000
0.6162726969
0.7369066082
0.7192100629
0.7534321516
0.5000000000
0.5000001097
0.6305184374
0.5000000032
0.6310854748
0.7329751258
0.6649593615
0.5000000000
0.7081594976
0.5001031233
0.5210157678
0.6766412287
0.7659779732
0.6402525351
0.5000000002
0.7015041267
0.5000007842
0.7288253732
0.7354609111
0.5085022213
0.5000000012
0.7263843981
0.6314232052
0.5911494587
0.5771464538
0.7407828879
0.6503856775
0.5000000000
0.5000082764
0.5000003584
0.5000000567
0.5767373917
0.5009986892
0.5868932570
0.7542559489
0.7249411935
0.5000000001
0.6324751041
0.5795939754
0.6682733581
0.6843680163
0.5000000347
0.5000095346
0.5412461630
0.5115423300
0.5000698142
0.6956559740
0.6296645028
0.7540422616
0.7169763990
0.5553522176
0.6299205911
0.7430261183
0.7492484505
0.5767377158
0.7361751884
0.5593694860
0.7015040468
0.7598822567
0.6314266813
0.5050484145
0.7526252667
0.6325168985
0.6953828272
0.7361766409
0.7270079060
0.7525701078
0.5000000000
0.6552702830
0.5000412460
0.4909940353
0.6667407513
0.7629742501
0.7384565749
0.5002658226
0.6649587679
0.5244026101
0.6330381542
0.6402529502
0.7661662904
0.6324786676
0.6843652427
0.6299232810
0.7629739759
0.7407838046
0.7600995087
0.6417133868
0.6334009073
0.7217953038
0.6751074720
0.5377712080
0.7288267669
0.7462705009
0.5905574390
0.5000000002
0.6868979608
0.6412779110
0.7644298242
0.6304738591
0.7605656826
0.7443230075
0.5419958227
0.5000016493
0.5000000065
0.7285293160
0.5089105354
0.5000001096
0.6503882673
0.7668862432
0.5000020335
0.7169778090
0.5209925628
0.7057340449
0.5000000000
0.7140075740
0.7453653850
0.5008121378
0.6890404877
0.7098448384
0.6245258154
0.7419925440
0.7565801243
0.5593702438
0.7384863303
0.6763020666
0.5002673100
0.5115424854
0.4445582313
0.7549262056
0.6161133096
0.5000000005
0.5000246564
0.6098049690
0.5803335660
0.5000000000
0.7777912772
0.6557397172
0.7687743513
0.6247969128
0.7369016010
0.7480907981
0.6316913805
0.5000000005
0.7469192966
0.7656870743
0.7233033494
0.5000000216
0.6492525127
0.5025803608
0.6659928117
0.7581776233
0.5000024932
0.5000001489
0.4622811074
0.7393009461
0.6137227917
0.5000342254
0.5302142252
0.7565803154
0.6278617750
0.7121616108
0.6330377180
0.7140072699
0.7384564314
0.6552712482
0.5000000000
0.7572756465
0.6171066092
0.6325193460
0.7021715746
0.6539449368
0.5000048408
0.6304757075
0.6544865382
0.7581775597
0.6467678226
0.6808834818
0.7443220436
0.6953821414
0.7285292532
0.6412794861
0.5007170518
0.5000003264
0.5145955844
0.7503176259
0.6334027434
0.7416053799
0.7679540330
0.7464418151
0.5000000000
0.5004146764
0.7644296990
0.7081213602
0.5000001615
0.8051762671
0.6931740083
0.6153829403
0.6123115126
0.8926063974
0.7349379964
0.7522445655
0.6751066314
0.5068733382
0.6638865567
0.6273087238
0.6035187953
0.5875835866
0.5000631921
0.5000000195
0.5496955580
0.6693353936
0.7178970247
0.6064274798
0.6332621620
0.5000000028
0.5000000001
0.7661660347
0.7148197084
0.7653014097
0.6445713690
0.5008006663
0.6887589456
0.6787865969
0.5000000001
0.5000000856
0.7403417810
0.7291602087
0.5002048362
0.7048747349
0.6742866239
0.7511344520
0.5000064499
0.5000000049
0.5000004650
0.6577794475
0.5978656585
0.7500673096
0.6338800128
0.6411683305
0.5000175823
0.5000014386
0.5016146256
0.5001836777
0.8652911935
0.5000001018
0.5000000019
0.6272239581
0.5000003264
0.5000117440
0.4622813123
0.5000000001
0.6868979335
0.5000000249
0.5206771752
0.5788241400
0.5000000003
0.5302150566
0.5000000058
0.5000000001
0.5089109126
0.5000000010
0.4752608734
0.4276713563
0.5000000510
0.5000000001
0.5590230168
0.5016643357
0.5006756144
0.5006787533
0.5016739152
0.5000714193
0.5000307931
0.5002004863
0.5004745259
0.5003390514
0.5000830494
0.5001336732
0.5003406012
0.5003353578
0.5025339819
0.5001487684
0.5011843977
0.5004756567
0.5000716044
0.5055378125
0.5062647380
0.5000855907
0.5000343827
0.5072427705
0.5004950362
0.5271275589
0.5000140680
0.5011368333
0.5616334957
0.5000385879
0.5027411234
0.5202571062
0.5108549215
0.5000145409
0.5730972527
0.5114320355
0.5011858481
0.5000929393
0.5055505727
0.5000061276
0.5601389514
0.5028485014
0.5847951250
0.5000203774
0.5263618643
0.5000181208
0.5501563915
0.5375452874
0.5127470936
0.5000140913
0.5271542879
0.5005665032
0.5002147541
0.5000470185
0.5000145731
0.5068383102
0.5000063273
0.5340073020
0.5000074301
0.5203135287
0.5000056293
0.5114935172
0.5238386064
0.5021578497
0.5000022134
0.5731593772
0.5000885532
0.5000023125
0.5111460255
0.5053427546
0.5000579651
0.5014704136
0.5016385546
0.5375841431
0.5684093252
0.5000099852
0.5134966220
0.5264777918
0.5002393596
0.5000009220
0.5849063566
0.5023996540
0.5000063344
0.5000004767
0.5000005892
0.5239572027
0.5000074440
0.5000316659
0.5021693642
0.5002528637
0.5097824200
0.5247217564
0.5000193986
0.5000030699
0.5000001640
0.5000019353
0.5008298586
0.5000024677
0.5003961677
0.5002400701
0.5000028976
0.5000047829
0.5060626784
0.5000171338
0.5000433387
0.5000490598
0.5733303078
0.5000001056
0.5773169800
0.5231820651
0.5000100032
0.5000000059
0.5000009225
0.5006827947
0.5000009759
0.5000006538
0.5000056167
0.5000052123
0.5377469869
0.5385986843
0.5000000661
0.5000009308
0.5135081011
0.5000000366
0.5000317460
0.5000194316
0.5059989368
0.5008340384
0.5000063679
0.5000323712
0.5000049402
0.5000001407
0.5011051739
0.5000005892
0.5044192842
0.5009839416
0.5000192703
0.5003248467
0.5000004767
0.5000016228
0.5000000182
0.5000000110
0.5387989361
0.5000000124
0.5000056219
0.5000017262
0.5000122917
0.5000434517
0.6033648683
0.6001903613
0.5000029001
0.5000009316
0.5000938141
0.5001634949
0.5000002014
0.5000001056
0.5000000059
0.5942732911
0.5003683612
0.5000017588
0.5774319152
0.5000490251
0.5000047875
0.5000152748
0.5349182951
0.5000003683
0.5233223058
0.5000000420
0.5000063766
0.5000002139
0.5127367878
0.5003260798
0.6052151647
0.5000324334
0.5000000009
0.5000410981
0.5000000200
0.5000583825
0.5024215507
0.5000000021
0.5000153749
0.5000003186
0.5452855142
0.5000000016
0.5073672441
0.5001174538
0.5000049295
0.5000000052
0.5001180066
0.5060223073
0.5000000001
0.5003700660
0.5000004972
0.5000000332
0.5000000124
0.5000017600
0.5000000454
0.5000940382
0.5684497272
0.5000013914
0.5000123106
0.5000001525
0.6003370383
0.5000000037
0.6033031193
0.5000004274
0.5011683079
0.5000002014
0.5000000200
0.5000000001
0.5001386795
0.5000000016
0.5176128329
0.5004885392
0.5000017839
0.5000003187
0.5155257118
0.5001178419
0.5000584842
0.5778524202
0.5267436278
0.5000000016
0.5000000005
0.5000000031
0.5001570685
0.5000006350
0.5000409567
0.5041097002
0.5001699853
0.6052643355
0.5000000037
0.5038313952
0.5000045042
0.5318201163
0.5000000098
0.5000001449
0.5000000126
0.5000004954
0.5031013220
0.5000001191
0.5000000006
0.5000000085
0.5000000128
0.5000000113
0.5000000683
0.5000001681
0.5000189024
0.5000013844
0.5000000002
0.5004417817
0.5000000006
0.5000134240
0.5001392325
0.5155294020
0.5000017855
0.5000000450
0.5008811720
0.5000000028
0.5000019313
0.5085828974
0.5013807233
0.5226994182
0.5000381899
0.5002848076
0.5000005777
0.5318158250
0.5000000006
0.5000000455
0.5000000375
0.5528612711
0.5000000683
0.5000000126
0.5000561578
0.5012614929
0.5000044819
0.5000000002
0.5004038975
0.5000000001
0.5000001450
0.5000000009
0.5000000113
0.5100537431
0.5006497250
0.5874193639
0.5001027285
0.5000000000
0.5000000006
0.5000000451
0.5502939493
0.5000000000
0.5000000024
0.5000000004
0.5000062120
0.5000133123
0.5000000000
0.5021661976
0.5000000002
0.5000000026
0.5004180258
0.5734837577
0.5000000000
0.5000000002
0.5528639808
0.5004039300
0.6114884601
0.5047883368
0.5000005778
0.5000000000
0.5006498506
0.5016085049
0.5000000000
0.5002648071
0.5000379365
0.5002453329
0.5000000000
0.6277525576
0.5027753709
0.5501790957
0.5000000007
0.5001788519
0.5985571570
0.5000000001
0.5000000000
0.5009110270
0.5000000000
0.5000000004
0.5749574331
0.5000000000
0.5000000000
0.5006657781
0.5000000024
0.5000000000
0.5000000000
0.5000000000
0.5000964372
0.5309944901
0.5000000001
0.5004182789
0.5001018276
0.5502847807
0.5000000000
0.5873003764
0.5000000002
0.5000000000
0.5000000000
0.5000000000
0.5000000000
0.5167386676
0.5000000000
0.5054737826
0.5017238565
0.5027749651
0.5016083334
0.5000000001
0.5000000000
0.5000000000
0.6205837335
0.5000000000
0.5946296068
0.5095597947
0.5000000000
0.5001789633
0.5002633558
0.5102335458
0.5035263654
0.5000000000
0.5000000001
0.6395882799
0.5000000000
0.6062423893
0.5000000000
0.5026690979
0.5005840279
0.5000000000
0.5000000000
0.5309934402
0.5052044740
0.5000000000
0.5001638924
0.5000964831
0.5006621160
0.5004222361
0.5000000000
0.5000000000
0.5095673303
0.5000000000
0.6423737455
0.5127363611
0.5000000000
0.6328026242
0.5026686793
0.5000000001
0.5000000000
0.5102332938
0.5000000000
0.5000000000
0.5000000000
0.5013327091
0.5000000000
0.5017190661
0.5013800499
0.5000000000
0.5000000000
0.5052150268
0.5000000000
0.6489040811
0.5000000000
0.5027300419
0.5315972479
0.5000000000
0.5005679073
0.5005738382
0.6503247259
0.5000000000
0.5051856743
0.5003559159
0.5003618669
0.5001639550
0.6500404849
0.5000000000
0.5000000000
0.5171029558
0.5013325763
0.5013799402
0.5012983950
0.5000000000
0.5000000000
0.5185279997
0.5000000000
0.6595576017
0.5000000000
0.5000000000
0.5127093539
0.5024838766
0.5013511557
0.5000000000
0.5308001478
0.6412567056
0.6659611168
0.5000000000
0.5000000000
0.5005346583
0.5000000000
0.5000000000
0.5000000000
0.5629910942
0.5004131611
0.5000000000
0.6170464471
0.5450001860
0.6420738564
0.5492771988
0.6136117179
0.6670839809
0.5013510738
0.6863989635
0.5053845642
0.6655427131
0.5704920455
0.5171020728
0.6925732486
0.5027320975
0.5052112786
0.5000000000
0.5313171781
0.5164468800
0.6300086403
0.5918545670
0.6971757495
0.6541127295
0.5677430080
0.6852216460
0.5024837269
0.5090804529
0.5185266197
0.5000000000
0.6974897654
0.6592372226
0.5000000000
0.5000003861
0.6764648368
0.5000000000
0.5000406715
0.5822663063
0.5000000000
0.5000000018
0.5000000000
0.5024941907
0.6806062965
0.5000000291
0.5000000000
0.5000043178
0.5171547339
0.5000000000
0.5000000001
0.5000000000
0.5003268599
0.6813196181
0.6553790484
0.6077133176
0.5101671325
0.6788098662
0.7079926614
0.5705023545
0.6863412109
0.5492794931
0.5178388186
0.7104478069
0.6336614695
0.5817328326
0.5053843451
0.6529926893
0.5946184627
0.6316607269
0.5293557075
0.6734925314
0.6440888654
0.6037614280
0.5052107967
0.6671378781
0.6998113886
0.5477789870
0.6857468601
0.7141039852
0.6212476095
0.5406159753
0.6418882776
0.5918752228
0.6154579134
0.5164451502
0.5000013344
0.6900019456
0.7177529821
0.6600037149
0.5079781634
0.5001230386
0.5064203208
0.5000000001
0.5000000000
0.5000000000
0.6368201380
0.5000000000
0.5000000001
0.5000011994
0.5000000064
0.6639454871
0.5000000000
0.5000000077
0.5001171892
0.5000135303
0.7100647618
0.5481388345
0.5010445273
0.5000130396
0.5386038098
0.5000000004
0.5000000000
0.5000000000
0.6974533141
0.5000000000
0.5000000000
0.5000000946
0.5000000004
0.5000001108
0.5008871558
0.6632436830
0.6279198109
0.5626704131
0.5178384865
0.6104881443
0.6480137372
0.6993489155
0.7233912541
0.6417461698
0.7104532839
0.6248166227
0.6883651992
0.7183371808
0.6706955574
0.6077398342
0.6519952436
0.6239709293
0.5406129315
0.5751180431
0.6367284767
0.6911323490
0.7245837700
0.6325333341
0.7062632614
0.6212747079
0.6752213194
0.7098871506
0.6594432977
0.5863148566
0.7004607879
0.5003604046
0.5226343250
0.5000000000
0.6886160862
0.5000000199
0.5000040704
0.6997492721
0.5000000258
0.5000000004
0.5000000003
0.5000000000
0.7288690689
0.6814508887
0.5003622076
0.5199923993
0.5000035006
0.5000000000
0.6083044804
0.5028806433
0.5031113121
0.5000000000
0.7177694133
0.5000000012
0.5000408674
0.5000003506
0.5000000016
0.5000000001
0.5000000000
0.7266183236
0.5000377581
0.5949928204
0.5000002838
0.5000000001
0.5000000014
0.6690248608
0.7320657937
0.5000594315
0.6578111177
0.6279393920
0.5000000001
0.5000000140
0.6950553003
0.7320207444
0.7274381138
0.6802584198
0.5004633525
0.5000003621
0.5000000000
0.5972607056
0.7103197955
0.7234094642
0.6445780664
0.6659443412
0.6369032407
0.7434867806
0.7485313222
0.5060987992
0.6257838790
0.5369113651
0.5000032129
0.6350849263
0.5000000061
0.7099491411
0.7329684257
0.5002076403
0.6470854725
0.6146082579
0.5000000000
0.5000000031
0.6798530457
0.6605488409
0.7192066855
0.6689103270
0.5001313961
0.5000014304
0.5000000000
0.5751158924
0.7013482356
0.7177902059
0.6372383850
0.6540193041
0.6325499870
0.7440444426
0.7482278882
0.5180070205
0.6060752529
0.5046251314
0.5000002256
0.6310777281
0.7131132682
0.5000000000
0.7364493621
0.5000118495
0.7634144685
0.5000000009
0.5010047216
0.5000000000
0.5911487064
0.5754127354
0.6132222538
0.5000000569
0.5868928433
0.7524863288
0.7249288852
0.5000000012
0.7169994837
0.7490199772
0.5000000790
0.7603286818
0.5000000000
0.7081610697
0.5000096191
0.6911752795
0.5530355764
0.5010754534
0.7105868593
0.5553980836
0.6956553959
0.5000000000
0.7354566659
0.5001193213
0.7656876330
0.5000000002
0.5001039879
0.5000000003
0.6095786913
0.5948987573
0.5686431371
0.5000000036
0.6083041370
0.7591753248
0.6766241530
0.5000000052
0.7288843971
0.7469193139
0.5000010374
0.7659785793
0.5000000000
0.5000007896
0.6680055818
0.5085712460
0.7263840118
0.5085287667
0.7395539572
0.5000125634
0.5000075389
0.5000000024
0.7526250242
0.7320165659
0.7270074152
0.5998617652
0.6619026233
0.5000000003
0.5017474865
0.5000000405
0.5000000003
0.7548839866
0.6862428184
0.5000181755
0.6779656357
0.7485298872
0.6027788209
0.7488360464
0.7492126243
0.6429064640
0.5000000995
0.5000000000
0.5008730206
0.5000016501
0.5000182326
0.5002658817
0.5000000000
0.6198411183
0.7387118177
0.5000032072
0.7195939340
0.7476709476
0.7533794589
0.5000000002
0.5000000065
0.6027557428
0.5244029160
0.5000000003
0.5004628122
0.5000000140
0.5000000566
0.6350959997
0.7320751844
0.5369019127
0.5020987230
0.5000000002
0.7319612738
0.5000008929
0.5000005886
0.5000108869
0.5000000001
0.7523249993
0.7453110940
0.7434277121
0.5162642933
0.6516921790
0.5000000001
0.5004890055
0.5000000096
0.7550155810
0.6735441842
0.5000048973
0.5533195487
0.7537748916
0.7537760568
0.7188382245
0.6372456633
0.5000000236
0.5000000008
0.5000858660
0.5000066333
0.5009447596
0.5000000000
0.6060748429
0.7283667969
0.5823413048
0.5000407635
0.7099167658
0.7488340934
0.5000000000
0.5000000294
0.5454098815
0.5651163373
0.5000000000
0.5046221815
0.5000002253
0.5000000124
0.6283222312
0.7269737127
0.6605395225
0.5006416468
0.6606320853
0.5000000000
0.5000342242
0.5000000216
0.5000000036
0.6984843410
0.5771463625
0.5000327664
0.6083047140
0.7453645116
0.5077785762
0.6120661391
0.7583261472
0.5000000005
0.6369866800
0.5754134242
0.6419368739
0.5000000000
0.6757961185
0.6904836317
0.5000001615
0.5000002234
0.5542346052
0.5359147155
0.5000053002
0.7131141737
0.5941116398
0.7569714706
0.7569706408
0.7187105792
0.7311802248
0.5030113886
0.5000000003
0.7266821106
0.7614657449
0.6306746768
0.6057045346
0.7419964133
0.7529434390
0.5583702079
0.5492054785
0.7357520710
0.5554687915
0.5081018687
0.6496233137
0.5000000000
0.5000024931
0.5000000998
0.5000000151
0.5874597856
0.5003326065
0.5686431824
0.7516195390
0.7057181161
0.7614653103
0.5000000000
0.6335532013
0.5948997248
0.6347164590
0.5000000009
0.6557392767
0.6748008172
0.5000000093
0.5000028794
0.5583706996
0.5043476590
0.5000217340
0.7018954715
0.6132223757
0.7591749678
0.6831877870
0.7055886229
0.7364544346
0.5229708343
0.5000000001
0.7105871644
0.6251484170
0.6095798701
0.5925445587
0.7398009341
0.7399970957
0.5930639963
0.5542346402
0.7290004229
0.5257234846
0.7714339914
0.6369905257
0.6904812261
0.7548839918
0.6306783027
0.5017474149
0.7570436488
0.7398016160
0.7535183785
0.7491118056
0.6014520124
0.6285852271
0.6997445269
0.5000000016
0.7090185789
0.6964205959
0.5352555197
0.7290038045
0.7604057034
0.6964200927
0.5179901386
0.7492134227
0.6197157251
0.5000000997
0.5000000000
0.7598822429
0.7440421525
0.5000000016
0.7108927490
0.6628118854
0.5000125610
0.5000014259
0.7652626034
0.5128871035
0.7395585212
0.6302018312
0.5998624996
0.5129701523
0.7573363366
0.7652651996
0.5000000532
0.7469886033
0.5076084892
0.5000000000
0.5000002071
0.7482265792
0.5000839246
0.5000000006
0.7446842053
0.5222274334
0.5000838895
0.5000004681
0.6606324417
0.7695059936
0.5091696783
0.6290574466
0.6419382030
0.5000008056
0.7749371855
0.6335578127
0.6747944430
0.7593953202
0.6251492803
0.5162642929
0.7573359298
0.6667393901
0.7357547035
0.7685631608
0.7492787207
0.6365619875
0.6336740179
0.7291603427
0.6877176134
0.5132185171
0.7187133105
0.7543609207
0.7430256210
0.6305178248
0.7516422147
0.5788236239
0.5000000000
0.5000412480
0.5000000003
0.6877101669
0.6424030096
0.5001576331
0.7712513686
0.4866670224
0.6244615374
0.7188393606
0.5000000007
0.7593954551
0.7660310002
0.7479133864
0.5206761167
0.5000008927
0.5000000032
0.7379768778
0.4811177422
0.5000221574
0.5000000566
0.6496255602
0.7748571352
0.5028124212
0.6234974904
0.6347177193
0.5000005858
0.7055905922