<VTKFile type="UnstructuredGrid" version="0.1">
	<UnstructuredGrid>
		<Piece NumberOfPoints="1862" NumberOfCells="3498">
			<CellData>
				<DataArray type="Int32" Name="type" NumberOfComponents="1" Format="ascii">
0
0
0
0
0
0
0
0
0
0
0
0
0
0
0
0
1
0
0
1
0
0
0
0
0
0
0
0
0
0
0
0
0
1
0
0
0
0
0
0
0
0
0
0
0
0
0
0
0
0
1
0
0
0
0
0
0
0
0
0
0
1
0
0
0
0
0
0
0
0
0
0
0
0
0
0
0
0
0
0
0
0
0
0
0
0
0
0
0
0
0
0
0
0
0
0
0
0
0
0
0
0
0
0
0
0
0
0
0
0
0
0
0
0
0
0
0
0
0
0
0
0
0
1
0
0
0
0
0
0
0
0
0
0
0
0
0
0
0
0
0
0
0
0
0
0
0
0
0
0
0
1
0
1
1
0
0
0
0
0
0
0
0
0
0
0
0
0
1
0
1
0
0
0
0
1
0
0
0
0
0
0
0
0
1
1
0
0
0
0
0
1
0
0
0
0
0
0
0
0
1
0
0
0
0
0
0
0
0
0
0
0
0
0
0
0
0
0
0
0
0
0
0
0
0
0
0
0
0
0
0
0
0
1
0
0
0
0
0
0
0
0
0
0
0
0
0
0
0
0
0
0
0
0
0
0
0
0
0
0
0
0
0
0
0
0
0
0
0
0
0
0
0
0
0
0
0
0
0
0
0
1
0
0
0
0
0
0
0
0
0
0
0
0
0
0
0
0
0
0
0
0
0
0
0
0
0
0
0
0
0
0
0
0
0
0
0
0
0
0
0
0
0
0
0
0
0
0
0
0
0
0
1
0
0
0
0
0
0
0
0
0
0
0
0
0
0
0
0
0
0
0
0
0
0
0
0
0
0
0
0
0
0
0
0
0
0
0
0
0
0
0
0
0
0
0
0
0
0
0
0
0
0
0
0
0
0
0
0
0
1
0
0
0
0
0
0
0
0
0
0
0
0
0
0
0
0
0
0
0
0
0
0
0
0
0
0
0
0
0
0
0
0
0
0
0
0
0
0
0
0
0
0
0
0
0
0
0
0
0
0
0
0
0
0
0
0
0
0
0
0
0
0
0
0
0
0
0
0
0
0
0
0
0
0
0
0
0
0
0
0
0
0
0
0
0
0
0
0
0
0
0
0
0
0
0
0
0
0
0
0
0
0
0
0
0
0
0
0
0
0
0
0
0
0
0
0
0
0
0
0
0
0
0
0
0
0
0
0
0
0
0
0
1
0
0
0
0
0
0
0
0
0
0
0
0
0
0
0
0
0
0
0
1
0
0
0
0
0
0
0
0
0
0
0
0
0
0
0
0
0
0
0
0
0
0
0
0
0
0
0
0
0
0
0
0
0
0
0
0
0
0
0
0
0
0
0
0
0
0
0
0
0
0
0
0
0
1
0
0
0
0
0
0
0
0
0
0
0
0
0
0
0
0
0
0
0
0
0
0
0
1
0
0
0
0
0
0
0
0
0
0
0
0
0
0
0
0
0
0
0
1
0
0
0
1
0
0
0
0
0
0
0
0
0
0
0
0
0
0
0
0
0
0
0
0
0
0
0
0
0
1
0
0
0
0
0
0
0
1
0
0
0
0
0
0
0
0
0
0
0
0
0
0
0
0
0
0
0
0
0
0
0
0
0
0
1
0
0
0
0
0
0
0
1
0
0
0
0
0
0
1
0
0
0
0
0
0
0
0
0
0
0
0
0
0
0
0
0
0
0
0
0
0
0
0
0
0
0
0
0
0
0
0
0
0
0
0
0
0
1
0
0
0
0
0
1
0
0
0
0
0
0
0
1
0
0
0
0
0
0
0
0
0
0
0
0
0
1
0
0
0
0
0
0
0
0
0
0
0
0
0
0
0
0
0
0
0
0
0
0
0
0
0
0
0
0
0
0
0
0
0
0
0
0
0
0
0
0
0
0
0
0
0
0
0
0
0
0
0
0
0
1
0
0
0
0
0
0
0
0
0
0
0
0
0
0
0
0
0
0
0
1
0
0
0
0
0
0
0
0
0
1
0
0
0
0
0
0
0
0
0
0
0
0
0
0
0
0
0
0
0
0
0
0
0
0
0
0
0
0
0
1
0
1
0
0
0
0
0
0
0
0
0
0
0
0
0
0
0
0
0
0
0
0
0
0
0
0
0
0
0
1
0
0
0
1
0
0
0
0
0
0
0
0
0
0
0
0
0
0
0
0
0
0
0
0
0
0
0
0
0
0
0
0
1
0
0
0
0
0
0
0
0
0
0
0
0
0
0
0
0
0
0
0
0
0
0
0
0
0
1
0
0
0
0
0
0
0
0
0
0
0
0
0
0
0
0
0
0
0
0
0
0
0
1
0
0
0
0
0
0
1
0
0
0
0
0
0
0
0
0
0
0
1
0
0
0
0
0
0
0
0
0
0
0
0
0
0
0
0
0
0
0
0
1
0
0
0
0
0
0
0
0
0
0
0
1
0
0
0
0
0
0
0
0
0
0
0
0
0
0
0
0
0
0
0
0
0
1
0
0
0
0
0
0
0
0
0
1
1
0
1
0
1
0
0
0
0
0
0
0
0
0
0
0
1
0
0
0
0
0
1
1
0
0
0
0
0
0
1
0
0
0
0
0
1
1
1
0
0
0
0
0
0
0
0
0
0
0
0
1
1
0
0
1
0
0
0
0
0
1
0
0
0
1
0
1
0
0
0
0
0
0
0
1
0
0
0
0
0
0
0
1
0
0
1
0
0
0
0
0
0
0
0
0
0
0
0
0
0
0
1
0
0
0
0
0
0
0
0
0
0
0
0
0
0
0
0
0
0
0
0
0
0
0
0
0
0
0
0
0
0
0
0
0
0
0
0
1
0
0
0
0
0
0
1
0
0
0
1
0
0
0
0
0
0
0
0
0
0
0
1
0
0
0
0
0
0
0
0
0
0
0
0
0
0
0
0
0
0
0
0
0
0
0
0
0
0
0
0
0
0
0
0
0
0
0
0
0
0
0
0
1
1
0
0
0
0
0
0
0
0
0
0
0
0
0
1
0
0
0
0
0
0
0
0
0
0
0
0
0
0
0
0
0
0
0
0
0
0
0
0
0
0
0
0
0
0
0
0
0
0
0
0
0
0
0
0
0
0
0
0
0
0
0
0
0
0
0
0
0
0
0
0
0
0
0
0
0
0
0
0
0
0
0
0
0
0
0
0
1
1
0
0
0
0
0
0
0
0
1
0
0
0
0
0
0
0
0
0
0
0
0
0
0
0
0
0
0
0
0
0
0
0
1
0
0
0
0
0
0
0
0
0
0
0
0
0
0
0
0
1
0
0
0
0
0
0
0
0
0
0
0
0
0
0
0
0
0
0
0
0
0
0
0
0
0
0
0
0
0
0
0
0
0
0
0
0
0
0
0
0
0
0
0
0
0
0
0
0
0
0
0
0
0
0
0
0
0
0
0
0
0
0
0
0
0
0
0
0
0
0
0
0
0
0
0
0
0
0
0
0
0
0
0
0
0
0
0
0
0
0
1
1
0
0
0
0
0
1
0
0
0
0
0
0
0
0
0
0
0
0
1
0
0
0
0
0
0
0
0
0
0
0
0
0
0
0
0
0
0
0
0
0
0
0
0
0
0
0
0
0
0
0
0
0
0
0
0
0
0
0
0
0
0
0
0
0
0
0
0
0
0
0
0
0
1
0
1
0
0
0
0
0
0
0
0
0
0
0
0
0
0
0
0
0
0
1
0
0
0
0
0
0
0
0
0
0
0
0
0
0
0
0
0
0
0
0
0
0
0
0
0
0
0
0
0
0
0
0
0
0
0
0
0
0
0
0
0
0
0
0
0
0
0
0
0
0
0
0
0
0
0
0
0
0
0
0
0
0
0
0
0
0
0
0
0
0
1
0
0
0
0
0
0
0
0
0
0
1
0
0
0
0
0
0
0
0
0
0
0
0
0
0
0
0
0
0
0
0
0
0
0
0
0
0
0
0
0
0
0
0
0
0
0
0
0
1
0
0
0
0
0
0
0
0
0
0
0
0
0
0
0
0
0
0
0
0
0
0
0
0
0
0
0
0
0
0
0
0
0
0
0
0
0
0
0
0
0
0
0
0
0
0
0
0
0
0
0
0
0
0
0
0
0
0
0
0
0
0
0
0
0
0
0
0
0
0
0
0
0
0
0
0
0
0
0
0
0
1
0
0
0
0
0
0
0
0
0
0
0
0
0
0
0
0
0
0
0
0
0
0
0
0
0
0
0
0
0
0
0
0
0
0
0
0
0
0
0
0
0
0
0
0
0
0
0
0
0
0
0
0
0
0
0
0
0
0
0
0
0
0
0
0
0
0
0
0
0
0
0
0
0
0
0
0
0
0
0
0
0
0
0
0
0
0
0
0
0
0
0
0
0
0
0
0
0
0
0
0
0
0
0
0
0
0
0
0
0
0
0
0
0
0
0
0
0
0
0
0
0
0
0
1
0
0
0
0
0
0
0
0
0
0
0
0
0
0
0
0
0
0
0
0
0
0
0
0
0
0
0
0
0
0
0
0
0
0
0
0
0
0
0
0
0
0
0
0
0
0
0
0
0
0
0
0
0
0
0
0
0
0
0
0
0
0
0
0
0
0
0
0
0
0
0
0
0
0
0
0
0
0
0
0
0
1
0
0
0
0
0
0
0
1
0
0
0
0
0
0
0
0
0
0
0
0
0
0
0
0
0
0
0
0
0
0
0
0
0
0
0
0
0
0
0
0
0
0
0
0
0
1
0
0
0
0
0
0
0
0
0
0
0
0
0
0
0
0
0
0
0
0
0
1
0
0
0
0
0
0
0
0
0
0
0
0
1
1
0
0
0
0
0
0
0
0
0
0
0
0
0
0
0
1
1
0
1
0
0
0
0
0
0
0
0
0
1
0
0
0
0
0
0
1
0
0
0
0
0
0
0
0
0
0
1
0
0
0
0
1
0
1
0
0
0
0
0
0
0
1
0
0
0
1
0
0
0
1
0
1
1
0
0
1
1
0
0
0
1
0
0
0
1
0
0
0
0
0
0
0
0
0
1
0
0
0
0
0
0
1
0
0
0
0
0
0
0
0
0
0
0
0
0
0
0
0
0
0
0
0
0
0
0
0
0
0
0
1
0
0
1
0
0
0
0
0
0
0
0
0
0
0
0
0
0
0
0
0
0
1
0
0
1
0
0
0
0
0
0
0
0
0
0
0
1
0
0
1
0
0
0
0
0
0
0
0
0
0
0
1
1
0
0
0
0
0
0
0
0
0
0
0
0
1
0
0
0
0
0
0
0
0
0
0
0
0
0
0
0
0
0
1
0
0
0
0
0
0
0
0
0
0
0
0
0
0
0
0
0
1
0
0
0
0
0
0
0
0
0
0
0
0
0
0
0
0
0
0
0
0
0
0
0
0
0
0
0
0
0
0
0
0
0
0
0
0
0
0
0
0
1
0
0
0
0
0
0
0
0
0
0
0
0
0
0
0
0
0
0
0
0
0
0
0
0
0
0
0
0
0
0
0
0
0
0
0
0
0
0
0
0
0
0
0
0
0
1
0
0
0
0
0
0
0
0
0
0
0
0
0
0
0
0
0
0
0
0
0
0
0
0
0
0
0
0
0
0
0
0
0
0
0
0
0
0
0
0
0
0
0
0
0
0
0
1
0
0
0
0
0
0
0
0
0
0
1
0
0
0
0
0
0
0
0
0
0
0
0
0
0
0
1
0
0
1
0
0
0
0
0
0
0
0
0
0
0
0
0
0
0
0
0
0
0
0
0
0
0
1
0
0
0
0
0
0
0
0
0
0
0
0
0
0
0
0
0
0
0
0
0
0
0
0
0
0
0
0
0
0
0
0
0
0
0
1
0
0
0
0
0
0
0
0
0
0
0
0
0
0
0
0
0
0
0
0
0
0
0
0
0
0
0
0
0
0
0
0
0
0
0
0
0
0
0
0
0
0
0
0
0
0
0
0
0
0
0
0
0
0
0
0
0
0
0
0
0
0
0
0
0
0
0
0
0
0
0
0
0
0
0
0
1
0
0
0
0
0
0
0
0
0
0
0
0
0
0
0
0
0
0
0
0
0
0
0
0
0
0
0
0
0
0
0
0
0
0
0
0
0
0
0
1
0
0
0
0
0
0
0
0
0
0
0
0
1
1
0
0
0
0
0
0
0
0
0
0
0
0
0
0
0
0
0
0
0
0
0
0
0
0
0
0
0
0
0
0
0
0
0
0
0
0
0
0
0
0
0
0
0
0
0
0
0
0
0
0
0
0
0
0
0
0
0
0
0
0
0
0
0
0
0
0
0
0
0
0
0
0
0
0
0
0
0
0
0
0
0
0
0
0
0
0
0
0
0
0
0
0
0
0
0
0
0
0
0
0
0
1
0
1
0
0
0
0
0
0
0
1
1
1
1
0
0
0
0
0
0
0
0
0
0
0
0
0
0
0
0
0
0
0
0
0
0
0
0
0
0
0
0
1
1
0
0
0
0
0
0
0
0
0
0
0
0
0
0
0
0
0
0
1
0
0
0
0
0
0
0
1
1
0
1
1
0
0
1
0
0
0
0
0
0
0
1
0
1
0
0
0
0
0
0
0
0
0
0
0
0
0
0
0
0
0
0
0
0
0
0
0
0
0
0
0
1
1
0
0
0
1
1
0
0
0
0
1
0
0
1
0
1
0
0
0
0
0
1
0
0
0
1
0
0
0
0
0
0
0
0
0
0
0
0
0
0
0
0
0
0
0
0
0
0
0
0
0
0
0
1
0
0
0
0
0
0
1
0
0
0
0
0
0
0
0
0
0
0
0
0
0
0
0
0
0
0
0
0
0
0
0
0
0
0
0
0
1
0
1
0
0
0
0
0
0
0
1
0
0
0
0
0
0
0
0
0
0
0
1
0
0
0
0
0
0
0
0
0
1
0
0
0
0
0
0
0
1
0
0
0
0
0
0
0
1
0
0
0
0
0
0
0
0
0
0
0
0
0
0
0
0
0
0
0
1
0
1
0
0
0
0
0
1
0
0
0
0
0
0
0
0
0
0
0
0
0
0
0
0
0
0
0
0
0
0
0
0
0
1
0
1
0
0
0
0
0
0
0
0
0
1
0
0
0
0
0
1
0
0
0
0
0
0
0
0
0
0
0
0
0
0
0
1
0
0
0
0
0
0
0
0
1
0
0
0
0
0
0
0
0
0
0
0
0
0
0
0
0
0
0
0
0
0
0
0
0
0
0
0
0
0
0
1
0
0
0
0
0
0
0
0
0
0
0
0
0
0
0
0
1
0
0
0
0
0
0
0
0
1
0
0
0
0
0
0
0
0
0
1
0
0
0
0
0
1
0
0
0
0
0
0
0
0
0
0
0
0
0
0
0
0
0
0
0
1
0
0
0
0
0
0
1
0
0
0
0
0
0
0
0
1
0
0
0
0
0
0
0
0
0
0
0
0
0
0
1
0
0
1
0
0
0
1
0
0
0
0
0
0
0
0
0
0
0
0
0
0
0
0
1
0
0
0
0
0
0
0
0
0
0
1
0
1
0
0
0
0
0
0
1
0
0
0
0
0
0
0
0
0
0
0
0
0
0
0
0
0
0
0
0
0
0
0
0
0
0
0
1
1
0
0
0
0
0
0
1
0
0
0
0
0
0
0
0
0
0
0
0
0
1
0
0
0
0
0
0
0
1
0
0
0
0
0
0
0
0
0
0
0
0
0
0
0
0
0
0
0
0
0
0
0
0
0
0
0
1
0
0
0
0
0
0
0
0
0
0
1
0
0
1
0
0
0
0
0
0
0
0
0
0
0
0
0
0
0
0
0
0
0
0
0
0
0
0
0
0
0
0
0
1
0
0
0
0
0
0
0
1
0
0
0
0
0
0
0
1
0
0
0
0
1
0
0
0
0
0
0
0
0
0
0
0
1
0
1
0
0
0
1
0
				</DataArray>
				<DataArray type="Float64" Name="h" NumberOfComponents="1" Format="ascii">
0.8255963316
0.8255168278
0.8404798223
0.8232507937
0.8440255713
0.8403540091
0.8336582772
0.8123987207
0.8299967941
0.7920982482
0.8150220549
0.8362038743
0.8123047392
0.8061249094
0.8152401587
0.7910383133
0.8271916259
0.7959717765
0.8207440009
0.8110542534
0.8446037683
0.8145222414
0.8329092632
0.8503308604
0.8176045820
0.7871595259
0.8206179171
0.8499408788
0.8429051871
0.7959631279
0.8015407870
0.8373384081
0.8081587509
0.8424388851
0.8686020963
0.8516015339
0.8551121540
0.8315163926
0.8439400227
0.8505315789
0.8463019614
0.8582230608
0.8269468660
0.8420728683
0.8538510013
0.8491418347
0.8374014218
0.8717479096
0.8998046718
0.8884855170
0.8545266662
0.8513819552
0.8466170423
0.8725200759
0.8599434111
0.8248720953
0.8532789267
0.8799113450
0.8835640330
0.8759852081
0.8944641995
0.8912093955
0.9021556269
0.8549420799
0.8444764367
0.8529151202
0.8751869632
0.8912909810
0.8884933133
0.8846460944
0.8827534946
0.8642143946
0.8283834495
0.8792578041
0.8824095729
0.8297535559
0.8811241473
0.8911431420
0.8770121031
0.8380082063
0.9019020477
0.8570698350
0.9143976421
0.8779800409
0.8323543215
0.8365639942
0.9044718624
0.8625022375
0.8918783896
0.9093272950
0.9063901648
0.8358255654
0.8967226828
0.9002255868
0.8470044508
0.8438175726
0.8469841428
0.8362810770
0.8444569040
0.9047133224
0.9112047862
0.9020739117
0.8598920853
0.8754140793
0.7707281135
0.8622397585
0.8336424551
0.9066350511
0.8920104868
0.8542089593
0.8926703873
0.9036951534
0.8999545497
0.9052208189
0.8730384239
0.9176772388
0.8658078204
0.7808989476
0.9112448044
0.8853899387
0.7737873781
0.8543156486
0.8256765773
0.7541415476
0.8983836442
0.9086032508
0.8777679171
0.7519585137
0.9167683220
0.9163733754
0.9127966557
0.8424503927
0.8888800972
0.9204266630
0.7778730159
0.9128099694
0.7720081375
0.9201724947
0.9100636785
0.7951014175
0.7507149467
0.7625144792
0.9147510605
0.8084710588
0.8327458827
0.9112925291
0.7816004459
0.9197193241
0.7600440819
0.9206875343
0.7641062406
0.9219475854
0.9210004832
0.9241677748
0.9077045873
0.9197459221
0.9240934709
0.7604030751
0.9219751273
0.7352903364
0.8024798831
0.9216322296
0.7755785882
0.7442201760
0.7562847453
0.9174392507
0.8191450911
0.7894955830
0.7411977156
0.9190560128
0.9240783472
0.7336261278
0.9242195655
0.7568035300
0.8216939677
0.9249329382
0.8139019863
0.9169154865
0.9247986927
0.7432503495
0.9192009211
0.8252250425
0.7341739409
0.8214794374
0.7310212767
0.7273357615
0.8248205888
0.9231799691
0.7375542728
0.7260542562
0.8254043333
0.9247769993
0.7283862216
0.8266916120
0.9248097974
0.9174028942
0.7468713680
0.8229518886
0.8253474858
0.9178678634
0.7250503100
0.8209727781
0.7267021154
0.9220504821
0.8184687303
0.7347530890
0.7847577922
0.7613601054
0.8214583191
0.8088754573
0.8222157633
0.7291550950
0.7422225575
0.7340237003
0.7730754623
0.8201991223
0.7976861129
0.7412613196
0.8212800968
0.7311508008
0.8164501231
0.8962785552
0.8169052913
0.8664067520
0.8162601507
0.9157569992
0.9124209520
0.8366697311
0.8130689367
0.9065071805
0.9188192832
0.8823659955
0.8245017669
0.9160598453
0.9155573315
0.8499747879
0.8212656367
0.7878853396
0.7303518098
0.8086901888
0.8204547302
0.7648973749
0.7390635545
0.8126177872
0.7664686154
0.7918113774
0.7387518823
0.8216217691
0.7772749202
0.7456076942
0.7989718995
0.8195719286
0.7460857017
0.8186132286
0.8189729071
0.7384723680
0.8030001217
0.7788890771
0.7340360118
0.8756881256
0.8156784295
0.8084703470
0.8217482248
0.8521251255
0.8165149003
0.9142454937
0.9127553015
0.8114906099
0.9138264090
0.8869676396
0.9085926103
0.8188141157
0.9032614241
0.8414040457
0.8577294231
0.8104724660
0.8122973777
0.8352739881
0.8702020852
0.8112998944
0.9107033982
0.9120869341
0.9139136205
0.9131453859
0.9001501283
0.8911592523
0.8273473545
0.7908373978
0.7433101861
0.7440189033
0.7933042931
0.8205825459
0.7703352342
0.7708381048
0.8099997832
0.8227896504
0.8120230002
0.7811300910
0.7505149876
0.7384836118
0.7435853253
0.7821135496
0.8204129100
0.8227965055
0.8189761837
0.8011092048
0.8209501257
0.8036341842
0.7504925305
0.8082534629
0.8264470620
0.8121904685
0.9100199797
0.8132310179
0.9042045185
0.8621247977
0.8167414585
0.8956233596
0.9105224309
0.8176881319
0.8395296798
0.8076976061
0.8765693880
0.9119304899
0.8070053406
0.8142253099
0.8235846160
0.9109820987
0.8428400272
0.8803734485
0.9059828039
0.9114483712
0.9087467092
0.8148062508
0.8581138694
0.8076311440
0.8926090115
0.7961022895
0.9143842645
0.8140169027
0.8295663383
0.8136242310
0.7485101025
0.8245569437
0.7758914580
0.7953802795
0.7751518898
0.7496769480
0.9090384290
0.8484615046
0.8316128099
0.8506425397
0.7858270732
0.7555325152
0.9215836260
0.8051938532
0.8617519337
0.8263739791
0.8056380769
0.8778862438
0.8805939439
0.9153126495
0.7435949890
0.8229768762
0.8247583082
0.7862684592
0.8674846714
0.8673121734
0.8379787172
0.7493985446
0.8606922429
0.9044902223
0.7564075983
0.9097207942
0.8498436439
0.8313919954
0.9103945959
0.7843202446
0.8999647841
0.8158611543
0.8215870231
0.8872714194
0.9068380193
0.8211548169
0.8683342979
0.8194564058
0.8066949296
0.8165724208
0.8107359115
0.8561067061
0.9066478601
0.8257180364
0.8307932826
0.8899213746
0.9108785392
0.8493402025
0.7949236837
0.8236449197
0.8351931237
0.8767028898
0.8102449846
0.9007745812
0.8710595794
0.8693842177
0.8831017471
0.9090514388
0.8861336012
0.8120663758
0.8081534620
0.8643403433
0.8182639718
0.8577772708
0.8590257534
0.8676463976
0.8008174006
0.9155977226
0.8941382873
0.8184215748
0.8645726553
0.8297206537
0.8831671341
0.8761155408
0.7809428944
0.8964505697
0.9224553007
0.8292614224
0.9103549820
0.7545750635
0.8909831235
0.8329177411
0.8409127241
0.9308442676
0.8680707098
0.9161480853
0.8594386702
0.8418699305
0.9401773765
0.8773754318
0.9115128575
0.8986528089
0.8867362110
0.9056046041
0.7911064948
0.9173708490
0.9028429282
0.8102105594
0.8228933439
0.8999878018
0.8422301127
0.9091183002
0.8896142118
0.9056050747
0.7494068106
0.8395343752
0.8299505287
0.8761233713
0.9402222543
0.9283855531
0.8810243965
0.9458950118
0.7619567992
0.8350357484
0.8087237300
0.9051757662
0.8250119082
0.8422159227
0.8226758083
0.8141947538
0.8871515598
0.7883851397
0.9100495460
0.8267178749
0.8803656577
0.8400629006
0.8348497825
0.8148954640
0.9682856903
0.8705146799
0.7617719638
0.7914865098
0.8012404755
0.8477788690
0.7984001691
0.9086994492
0.9903686234
0.9696461357
0.8962485952
0.8121413545
0.8260673132
0.8381106468
0.9147528365
0.8234309046
0.9819735428
0.7693020096
0.7949328372
0.8463538213
0.8183203174
0.9943235314
0.8613467064
0.8147931121
0.9520146121
0.9567102674
0.8624799604
0.8351989261
0.8767016288
0.8342097157
0.8110314620
0.7560801714
0.8518043224
0.9219885656
0.8121341588
0.8442645574
0.9237455522
0.8267285120
0.9107725460
0.7617800079
0.9125109755
0.8929342256
0.7642450854
0.8326147935
0.8442814897
0.8821879064
0.9029880805
0.9150861953
0.8127909968
0.9316836454
0.8247294524
0.9006565322
0.9023597245
0.8525444300
0.8985675924
0.8087398770
0.8828723857
0.7917933667
0.7883995050
0.8967129141
0.7693106410
0.8183334831
0.7560880097
0.9023608575
0.8477969547
0.8910722084
0.8622524742
0.7590550447
0.8784659906
0.8231073602
0.8080090843
0.8400763558
0.8854933322
0.8521931350
0.9444579459
0.8710136933
0.8021867487
0.9107710964
0.7725992059
0.9173284825
0.8566154068
0.8406585210
0.9188611090
0.9342959955
0.8475440802
0.8289225857
0.9284046176
0.7984170020
0.9035473855
0.8774369255
0.8342204456
0.8226854580
0.9268535422
0.9056704687
0.8409240155
0.9135557335
0.9459889511
0.9161959714
0.8297431162
0.7733880141
0.8506524827
0.9170608991
0.9237457712
0.8599401725
0.8357025533
0.8422983687
0.9520176947
0.8373729518
0.9209157879
0.8028826261
0.9115427487
0.8590819099
0.8228925644
0.8676126685
0.9104123315
0.9007601481
0.8528577640
0.9083275484
0.8737817371
0.8395580086
0.8650972757
0.7673168337
0.9831794039
0.8771139478
0.8938959779
0.8535186146
0.9699836221
0.8250222007
0.8293217584
0.8790724031
0.8950904839
0.9831686533
0.8941825391
0.8468147794
0.8901838385
0.7924303420
0.9759612796
0.8603201184
0.9170639253
0.8138974226
0.9322121997
0.7918060039
0.8409280412
0.8525550002
0.8128062407
0.9373932344
0.9212111374
0.7825588565
0.7642543889
0.8454445640
0.8629023035
1.0306135115
0.7726079905
0.8778316087
0.8950878843
0.8684199940
0.8825519759
0.8566268692
0.8326215463
0.8475533055
0.8022019436
0.9979181876
1.0365588602
0.9635028567
0.9248368570
0.7590642936
0.8917159745
0.8996495290
0.8647940645
0.9753471850
0.9648792711
0.9107706767
0.8848974085
0.9869055488
0.8688869835
0.8423264909
0.7798415438
0.8098460291
0.8685504682
0.8588650035
0.8700546154
0.8231201374
0.9746818438
0.8320830605
0.7724922331
0.7990244292
0.9451798938
1.0176679887
1.0370428214
0.9532247933
0.8569839956
0.8514854079
0.7887965786
0.8210577920
1.0164570092
1.0254365046
0.8967086369
0.8873250770
0.8968984535
0.8733095471
1.0046253630
0.8738564269
0.8776294657
1.0741325047
1.0686844833
0.8804022373
0.8819164216
1.0250918840
0.8817003933
0.8815106592
0.8717199655
1.0552828651
1.0647072899
1.0696068367
0.8749471289
0.8672936352
0.8671787579
0.8659498252
0.8713911402
1.0475106054
1.0699775101
0.9843246600
1.0178332793
0.8658453203
1.0848798537
1.0931073345
0.8596888386
1.0365442771
1.0142331701
0.8468171734
1.0971910391
0.8710159550
1.0594595274
0.8470557439
0.8573463891
1.0956154748
0.8603232435
1.0828444340
1.0505467932
0.8289263316
1.0322923178
0.8317501371
0.8337310600
1.0217014391
1.0078849371
0.8014291440
0.8307765894
0.8345006252
0.8344438058
0.8306870260
0.8301812744
0.8362200179
0.8150525885
0.8217013543
0.8422911339
0.8403908055
0.8439923912
0.8422296797
0.8299424441
0.8152975458
0.8336902562
0.8013811103
0.8216589511
0.8301552689
0.8083665557
0.7959892653
0.8232339837
0.8404600650
0.8208452025
0.7959801199
0.7964574179
0.8327175216
0.8123563879
0.7871381278
0.8176090312
0.7920892986
0.8075815526
0.8122435817
0.8475083906
0.8011575092
0.8275117688
0.8013558750
0.8015514833
0.8083241731
0.8424368577
0.8082101000
0.8374400087
0.8148728318
0.8505428283
0.8420730243
0.8271965324
0.7910398093
0.8270527747
0.8440043890
0.8327095864
0.7964444376
0.8463564527
0.8061039225
0.8110610754
0.8474960210
0.8327812682
0.8726956450
0.8144461410
0.8580451214
0.8075271405
0.8445991669
0.8274003946
0.8216658690
0.8541507865
0.8717356547
0.8011425618
0.8538683116
0.8545212329
0.8375259062
0.8498641402
0.8503088867
0.8428066793
0.8533274154
0.8391106942
0.8205422215
0.8601978237
0.7887812475
0.8420150529
0.8621717824
0.8657684203
0.8148161369
0.8467025851
0.8727083595
0.8962852298
0.8947566314
0.8215617516
0.8580429115
0.8603605618
0.8540937880
0.8515676786
0.8445840099
0.8313994169
0.8685291130
0.8686118374
0.9021399163
0.8912633781
0.8587660466
0.8551145403
0.8549726999
0.8621583152
0.8773134444
0.8773189339
0.8419469508
0.8792316068
0.8733483784
0.8642178053
0.8284401984
0.8862390175
0.8322094938
0.8373971669
0.8601986732
0.8935460465
0.8657792779
0.8581976236
0.8811064782
0.8827388947
0.8820201323
0.8823855601
0.8390345438
0.8348873457
0.8884733978
0.8649311578
0.7887815589
0.8846281442
0.8603540793
0.8685386798
0.8462967960
0.8587374587
0.8833797235
0.8706380324
0.8832178674
0.8998017372
0.8513215333
0.8947913509
0.8490556977
0.8571036683
0.8779559523
0.8637172192
0.8962897984
0.8884994732
0.8944717959
0.8912296054
0.8347880048
0.8969681851
0.8820401359
0.8835832619
0.8759498345
0.8733581436
0.8300070221
0.8303570221
0.8773313854
0.8649421060
0.8672359907
0.8599292256
0.8895024021
0.8862596884
0.8935712661
0.8248160826
0.8625685028
0.8833464824
0.8321611180
0.8725220736
0.8773353349
0.8759988246
0.8358237483
0.8799305460
0.8373004881
0.8967156017
0.8833880763
0.8753979863
0.8445006085
0.8637062056
0.8311264119
0.8706454805
0.9020572595
0.8688867711
0.9007210802
0.8701175719
0.8528773517
0.9112388447
0.8752059889
0.8730930323
0.8362942323
0.8996277059
0.8438367047
0.8675919551
0.8832693425
0.9047117446
0.8621999267
0.8462688562
0.9154057592
0.8625527456
0.8919852146
0.9037119888
0.8969627868
0.8833652966
0.8999368251
0.8672380466
0.8297864624
0.8872057175
0.8759655331
0.8911636621
0.8303181359
0.9054783971
0.8300332103
0.8926573687
0.8542419070
0.8895165367
0.9007327033
0.9153655260
0.8683496154
0.8996447885
0.8365850294
0.8543267194
0.8895314808
0.8731069416
0.7797134702
0.8675934419
0.8701155189
0.8323564730
0.8380103406
0.9044811504
0.9143503798
0.9019077966
0.8658329696
0.8770271811
0.8689423381
0.7737754952
0.8625376812
0.8310863568
0.9054793543
0.8424401192
0.8790831408
0.7730853034
0.9086188536
0.8982401442
0.9052887826
0.8919011948
0.8470061344
0.9002203143
0.9152794587
0.9092897288
0.9063963363
0.9105374251
0.8820472607
0.8983465875
0.8777491428
0.8872632442
0.9163940807
0.8598748447
0.9143010126
0.8720965284
0.8683311158
0.7797306330
0.8895592339
0.9037099607
0.7778731825
0.9128164930
0.8888535823
0.7707473156
0.8470327293
0.8327199410
0.8643634133
0.7625113191
0.8963154166
0.7731209112
0.9152583215
0.9052382652
0.9066153470
0.7756537466
0.8820607775
0.9053017753
0.8730359336
0.7600339907
0.8792001030
0.9147667522
0.7479910462
0.9176530338
0.8982679693
0.9113021814
0.9105362323
0.8336893945
0.7674009341
0.8264822709
0.8569652532
0.9226332606
0.9142802593
0.9037270515
0.7593645796
0.9184813016
0.9133202318
0.9095262089
0.8854096193
0.8721993926
0.9219595885
0.7809001183
0.9115662123
0.9112391506
0.7867983890
0.7640607580
0.9210160105
0.9076993416
0.7757007959
0.7480004804
0.7894760875
0.7562642944
0.8963632983
0.9213402611
0.7674047410
0.7473447863
0.9195455016
0.8520772062
0.8643896817
0.7541463884
0.9167559927
0.8024749725
0.7629951093
0.8257241093
0.9127874417
0.7810891927
0.7755365117
0.9149014402
0.9216495322
0.7519696836
0.9219840729
0.9095248100
0.7720615734
0.9204131666
0.9215653216
0.8447740884
0.9132919851
0.9194440870
0.9201534668
0.9242264152
0.7905256295
0.7631414593
0.9100638506
0.7867882427
0.8571114328
0.7594028049
0.9226198211
0.8265193780
0.9115603557
0.9190754137
0.9162645364
0.9184669942
0.9240882571
0.7567760655
0.9206801586
0.7341589891
0.8420284906
0.7630111274
0.7473589438
0.9169068452
0.9221690077
0.9232621750
0.8084328574
0.9197018790
0.7816291507
0.7432313083
0.9195369361
0.7810844201
0.8521742539
0.7384626011
0.7507341850
0.9192277411
0.9148908621
0.8139804022
0.9145339849
0.7951078528
0.9213256293
0.7397893544
0.7375417681
0.9197186258
0.9240837975
0.7631783748
0.8304166135
0.9215491552
0.7710412200
0.7905239152
0.8448781455
0.7310087548
0.9194190446
0.9241603881
0.7604246579
0.9162564668
0.8248468245
0.8287584270
0.9248121448
0.8190870788
0.7398048343
0.9168746170
0.9174272105
0.7384791282
0.9232556159
0.9145285000
0.9185897334
0.7317803781
0.9221547840
0.8421050626
0.7411909746
0.9247794831
0.9191094445
0.7442369446
0.9174092099
0.8267081427
0.9182649797
0.7353048836
0.8209024012
0.9233542574
0.7336390799
0.7266891452
0.8216768751
0.9220506551
0.8305037009
0.7412070378
0.7250369992
0.7710403514
0.8253219766
0.9217327528
0.9247966649
0.7493762928
0.7317941459
0.7412052613
0.7291418062
0.9182585242
0.9185670593
0.7374197004
0.9164403479
0.8252282484
0.9190988406
0.9249302727
0.8288239419
0.7276162252
0.7260496536
0.9169038384
0.7422031187
0.8214311083
0.8254314970
0.9188162663
0.9233531564
0.7260676442
0.9217322791
0.9204108682
0.9200008768
0.8215341448
0.7273480673
0.9231777886
0.8164192604
0.7387376716
0.7918004510
0.7524512712
0.7664077565
0.8229727293
0.7260623536
0.8162386592
0.7314694461
0.8126129198
0.7504586931
0.7493992380
0.8212549404
0.7283989106
0.7282291360
0.9164092558
0.7468952424
0.7313734408
0.7788544404
0.7554968438
0.8186067719
0.8030111739
0.7460654755
0.8216079026
0.7276293056
0.7303389828
0.7374361882
0.9172412416
0.8145085500
0.8184875022
0.9204108944
0.8911018799
0.8187982623
0.9200020695
0.8575235371
0.8112466591
0.9139089524
0.9107421850
0.9149535799
0.8272142391
0.8114776777
0.9032737782
0.9178705582
0.8755433164
0.8164271093
0.9138200440
0.9138569141
0.9142563164
0.8412179779
0.8222344707
0.7932778866
0.7543848653
0.7311633375
0.8120066870
0.8205772927
0.7504850769
0.8162511232
0.7524810295
0.7347688249
0.8161004883
0.7708660894
0.7432973856
0.7314830729
0.8088254407
0.7613981452
0.7847814089
0.7347654058
0.8212874192
0.7820869359
0.7504750541
0.7282412759
0.8036124917
0.8204058325
0.7412788318
0.8202094974
0.8189626380
0.7596368774
0.7353993045
0.7976808351
0.7555263929
0.7731169274
0.7313850126
0.8824412971
0.8176802150
0.8165209319
0.8075763733
0.8141332722
0.8426149333
0.8246180515
0.9138259849
0.9155506851
0.9109680235
0.8131101617
0.9160640950
0.9124273412
0.8802338211
0.9059944522
0.8169083847
0.9172447217
0.9064842368
0.8501369666
0.8665163154
0.8131802858
0.8076437887
0.8262855660
0.8619064581
0.8163401434
0.9123836889
0.9149275363
0.9100331337
0.8145237767
0.9157648476
0.9119299475
0.8955793833
0.9110787535
0.8962939856
0.8368197489
0.7960840039
0.7596202130
0.7390752834
0.7347830228
0.7484995896
0.7879045694
0.8204617618
0.8218667852
0.7751309769
0.8161200996
0.7651301698
0.8136150530
0.8245445799
0.8087061681
0.7544089163
0.7858048417
0.7555197791
0.7354102000
0.7401573648
0.7772297478
0.8195756075
0.8247351515
0.7652675698
0.8189830816
0.7596778617
0.8056250658
0.8229692261
0.7989899924
0.7456241110
0.8120194004
0.8354673245
0.8081116903
0.9121238923
0.8105018082
0.9007496095
0.8703628741
0.8194486817
0.9001638753
0.9110619441
0.9100745489
0.9090177596
0.8246226909
0.8156781409
0.8306248511
0.8123910036
0.8692015313
0.9131446341
0.8066616122
0.8218923080
0.8164798613
0.9127686065
0.8165558175
0.9083625950
0.8523314717
0.8870508093
0.9085730379
0.9103754174
0.9068094748
0.8215443773
0.8496277948
0.8085311809
0.8871771828
0.9124095397
0.9155698890
0.8409165923
0.8327421963
0.8646355614
0.7908597807
0.7596390391
0.9147361263
0.9162274833
0.8184113158
0.8592476045
0.8328994921
0.8100057675
0.8651901935
0.8964240365
0.9209121573
0.7440296652
0.8228010597
0.8219013952
0.7809262882
0.8007995207
0.7702518358
0.8577711177
0.8760535114
0.8418434418
0.7545665380
0.8527377350
0.8920014481
0.7661079575
0.9102089268
0.8389324082
0.8350103879
0.8521143024
0.7811561753
0.7505289891
0.9087821169
0.9229237233
0.8101965549
0.8537453905
0.8299382424
0.8011232296
0.8787000565
0.8841379312
0.9150410685
0.7401675021
0.8209573422
0.8228156823
0.7711024840
0.7910876169
0.7652839972
0.8581715453
0.8753868691
0.8336300847
0.7456084248
0.8566085963
0.9056115009
0.7619473075
0.8585082706
0.9086468929
0.8369329023
0.8583206045
0.8943969302
0.9083169511
0.8259801023
0.9114623825
0.7914776359
0.7970222467
0.8276457664
0.8962008797
0.8381070376
0.8825355484
0.8233881298
0.9083681839
0.8148550230
0.8718648308
0.8926695053
0.8829834917
0.9087679488
0.8250026230
0.8612175363
0.8167450109
0.8070549530
0.8237372166
0.8684835476
0.8110188673
0.8624768040
0.9051247192
0.8348186137
0.8397370466
0.8938973450
0.9100173829
0.8420962154
0.9100755865
0.7829109776
0.7885974684
0.8304530595
0.9064201316
0.8420231008
0.8826742558
0.8141667780
0.9042140969
0.8246626227
0.8771154358
0.8767125480
0.8871547896
0.9105485005
0.8802601992
0.8082991047
0.8122780464
0.8705134298
0.8148568017
0.8479119646
0.9268246742
0.8646073194
0.9080503021
0.8929282872
0.8592517441
0.8821890463
0.8954235191
0.7953994420
0.9152566268
0.9081375603
0.8978672025
0.9152307533
0.9079411001
0.8140257484
0.8674477853
0.8217601176
0.8760612332
0.8337813152
0.8679971911
0.8975930108
0.7759096865
0.8993193823
0.9209497741
0.8316089405
0.9188535341
0.8674202249
0.8985882569
0.9109014534
0.7496867151
0.8407567706
0.8920219049
0.8295820101
0.8674921695
0.8831600807
0.9444372755
0.9342800040
0.8337655989
0.8828831052
0.9337047331
0.8650197865
0.9162470824
0.9423136815
0.7661216726
0.8327743698
0.8527209950
0.8402566457
0.9224173392
0.8484749800
0.9352454200
0.8826412701
0.8910031120
0.9119236071
0.8933825850
0.8673141616
0.8794727745
0.9011477477
0.7862897073
0.9147802675
0.9221672768
0.9062274526
0.9074480560
0.8052077928
0.8806363463
0.8185183649
0.8838780888
0.8838712635
0.8944684113
0.7711148123
0.9090648451
0.9216114046
0.8467347062
0.9062414818
0.8851974589
0.9064981904
0.7456178489
0.8299250657
0.8594530455
0.8777963535
0.8263847774
0.8680073593
0.9373665929
0.9267730053
0.8379676592
0.8742652541
0.9256437834
0.8566975730
0.9056386491
0.9502587855
0.7564187049
0.8316355596
0.8537346140
0.8509683673
0.8030678442
0.9066848587
0.9759490299
0.9699697319
0.9064431229
0.8211627217
0.8012486172
0.8495121641
0.8420275706
0.9135513806
0.8215527188
0.8102651984
0.8831006108
0.9831623179
0.7731547445
0.7970306485
0.7828885827
0.9109090363
0.8597897354
0.8213706242
0.9868901685
0.8862240068
0.8188443870
0.9370410071
0.9646282546
0.8585050374
0.8236513932
0.8771437242
0.8771436671
0.8359767140
0.8257594438
0.8183477967
0.9619858739
0.8643429470
0.8882234888
0.7563573164
0.7843296876
0.8506403079
0.9206732260
0.8077599143
0.8263598214
0.8434647964
0.8044199884
0.9350623012
0.7931332501
0.9097648145
0.9831534187
0.9627063152
0.8999996093
0.8049671148
0.8315312451
0.8304582037
0.9117181228
0.8159004220
0.8882193940
0.9753295719
0.7643528082
0.7886070328
0.7784477312
0.9083373268
0.8528538545
0.8122852079
0.9869695340
0.8684889534
0.8077671992
0.9510939929
0.9508802364
0.8561152973
0.8276535396
0.8826708354
0.8494148080
0.8297236242
0.8369674522
0.8107730792
0.9590308740
0.8684860221
0.7518585116
0.7829208301
0.8160623365
0.8463641105
0.9213290913
0.7944916378
0.8188384004
0.8403221530
0.9208163514
0.8965962352
0.7731656631
0.8213817039
0.9079458609
0.7563665081
0.9081337268
0.8986578019
0.8463825372
0.8917348661
0.8861214632
0.8635335564
0.7700410499
0.8802648750
0.9316679241
0.8383599292
0.8750349541
0.8107467113
0.8403375257
0.8862108854
0.8750323651
0.8336277165
0.8975968442
0.8554515669
0.8992905620
0.9088444710
0.9107696308
0.8581804564
0.9316860468
0.8734670857
0.8189712574
0.9268186270
0.8841887394
0.9113734255
0.8180280789
0.8478997796
0.7817721345
0.8954208450
0.8606928388
0.8990439736
0.9137849395
0.9161303925
0.8611275250
0.8434151848
0.9144405579
0.9458259376
0.8753912168
0.8948854563
0.9489342159
0.8570953873
0.8332595380
0.8948191296
0.9176477766
0.8030858349
0.9020907908
0.8775722837
0.7978774262
0.7829032790
0.9045163620
0.8972933134
0.7643619341
0.8122998759
0.9107937509
0.7518675469
0.9011425149
0.8990469539
0.9006579966
0.8434815229
0.8920710199
0.8867383306
0.8667196562
0.7636916899
0.8819162131
0.8291302170
0.8150448881
0.8359891803
0.8877944632
0.8676450101
0.8810201643
0.9028495994
0.8573443904
0.9153523904
0.9316764813
0.9337282030
0.8749054195
0.8084105961
0.9173722543
0.9092406152
0.8214298384
0.7780446118
0.8944677333
0.9489158497
0.9107923424
0.9146432576
0.8617697950
0.8470536273
0.9352662736
0.9459110218
0.8522420945
0.8359184027
0.9090830227
0.9423287394
0.7931511695
0.9029969154
0.8896128400
0.7876800554
0.7784584950
0.8827216258
0.8297336557