<VTKFile type="UnstructuredGrid" version="0.1">
	<UnstructuredGrid>
		<Piece NumberOfPoints="1862" NumberOfCells="3498">
			<CellData>
				<DataArray type="Int32" Name="type" NumberOfComponents="1" Format="ascii">
0
0
0
0
0
0
0
0
0
0
0
0
0
0
0
0
1
0
0
1
0
0
0
0
0
0
0
0
0
0
0
0
0
1
0
0
0
0
0
0
0
0
0
0
0
0
0
0
0
0
1
0
0
0
0
0
0
0
0
0
0
1
0
0
0
0
0
0
0
0
0
0
0
0
0
0
0
0
0
0
0
0
0
0
0
0
0
0
0
0
0
0
0
0
0
0
0
0
0
0
0
0
0
0
0
0
0
0
0
0
0
0
0
0
0
0
0
0
0
0
0
0
0
1
0
0
0
0
0
0
0
0
0
0
0
0
0
0
0
0
0
0
0
0
0
0
0
0
0
0
0
1
0
1
1
0
0
0
0
0
0
0
0
0
0
0
0
0
1
0
1
0
0
0
0
1
0
0
0
0
0
0
0
0
1
1
0
0
0
0
0
1
0
0
0
0
0
0
0
0
1
0
0
0
0
0
0
0
0
0
0
0
0
0
0
0
0
0
0
0
0
0
0
0
0
0
0
0
0
0
0
0
0
1
0
0
0
0
0
0
0
0
0
0
0
0
0
0
0
0
0
0
0
0
0
0
0
0
0
0
0
0
0
0
0
0
0
0
0
0
0
0
0
0
0
0
0
0
0
0
0
1
0
0
0
0
0
0
0
0
0
0
0
0
0
0
0
0
0
0
0
0
0
0
0
0
0
0
0
0
0
0
0
0
0
0
0
0
0
0
0
0
0
0
0
0
0
0
0
0
0
0
1
0
0
0
0
0
0
0
0
0
0
0
0
0
0
0
0
0
0
0
0
0
0
0
0
0
0
0
0
0
0
0
0
0
0
0
0
0
0
0
0
0
0
0
0
0
0
0
0
0
0
0
0
0
0
0
0
0
1
0
0
0
0
0
0
0
0
0
0
0
0
0
0
0
0
0
0
0
0
0
0
0
0
0
0
0
0
0
0
0
0
0
0
0
0
0
0
0
0
0
0
0
0
0
0
0
0
0
0
0
0
0
0
0
0
0
0
0
0
0
0
0
0
0
0
0
0
0
0
0
0
0
0
0
0
0
0
0
0
0
0
0
0
0
0
0
0
0
0
0
0
0
0
0
0
0
0
0
0
0
0
0
0
0
0
0
0
0
0
0
0
0
0
0
0
0
0
0
0
0
0
0
0
0
0
0
0
0
0
0
0
1
0
0
0
0
0
0
0
0
0
0
0
0
0
0
0
0
0
0
0
1
0
0
0
0
0
0
0
0
0
0
0
0
0
0
0
0
0
0
0
0
0
0
0
0
0
0
0
0
0
0
0
0
0
0
0
0
0
0
0
0
0
0
0
0
0
0
0
0
0
0
0
0
0
1
0
0
0
0
0
0
0
0
0
0
0
0
0
0
0
0
0
0
0
0
0
0
0
1
0
0
0
0
0
0
0
0
0
0
0
0
0
0
0
0
0
0
0
1
0
0
0
1
0
0
0
0
0
0
0
0
0
0
0
0
0
0
0
0
0
0
0
0
0
0
0
0
0
1
0
0
0
0
0
0
0
1
0
0
0
0
0
0
0
0
0
0
0
0
0
0
0
0
0
0
0
0
0
0
0
0
0
0
1
0
0
0
0
0
0
0
1
0
0
0
0
0
0
1
0
0
0
0
0
0
0
0
0
0
0
0
0
0
0
0
0
0
0
0
0
0
0
0
0
0
0
0
0
0
0
0
0
0
0
0
0
0
1
0
0
0
0
0
1
0
0
0
0
0
0
0
1
0
0
0
0
0
0
0
0
0
0
0
0
0
1
0
0
0
0
0
0
0
0
0
0
0
0
0
0
0
0
0
0
0
0
0
0
0
0
0
0
0
0
0
0
0
0
0
0
0
0
0
0
0
0
0
0
0
0
0
0
0
0
0
0
0
0
0
1
0
0
0
0
0
0
0
0
0
0
0
0
0
0
0
0
0
0
0
1
0
0
0
0
0
0
0
0
0
1
0
0
0
0
0
0
0
0
0
0
0
0
0
0
0
0
0
0
0
0
0
0
0
0
0
0
0
0
0
1
0
1
0
0
0
0
0
0
0
0
0
0
0
0
0
0
0
0
0
0
0
0
0
0
0
0
0
0
0
1
0
0
0
1
0
0
0
0
0
0
0
0
0
0
0
0
0
0
0
0
0
0
0
0
0
0
0
0
0
0
0
0
1
0
0
0
0
0
0
0
0
0
0
0
0
0
0
0
0
0
0
0
0
0
0
0
0
0
1
0
0
0
0
0
0
0
0
0
0
0
0
0
0
0
0
0
0
0
0
0
0
0
1
0
0
0
0
0
0
1
0
0
0
0
0
0
0
0
0
0
0
1
0
0
0
0
0
0
0
0
0
0
0
0
0
0
0
0
0
0
0
0
1
0
0
0
0
0
0
0
0
0
0
0
1
0
0
0
0
0
0
0
0
0
0
0
0
0
0
0
0
0
0
0
0
0
1
0
0
0
0
0
0
0
0
0
1
1
0
1
0
1
0
0
0
0
0
0
0
0
0
0
0
1
0
0
0
0
0
1
1
0
0
0
0
0
0
1
0
0
0
0
0
1
1
1
0
0
0
0
0
0
0
0
0
0
0
0
1
1
0
0
1
0
0
0
0
0
1
0
0
0
1
0
1
0
0
0
0
0
0
0
1
0
0
0
0
0
0
0
1
0
0
1
0
0
0
0
0
0
0
0
0
0
0
0
0
0
0
1
0
0
0
0
0
0
0
0
0
0
0
0
0
0
0
0
0
0
0
0
0
0
0
0
0
0
0
0
0
0
0
0
0
0
0
0
1
0
0
0
0
0
0
1
0
0
0
1
0
0
0
0
0
0
0
0
0
0
0
1
0
0
0
0
0
0
0
0
0
0
0
0
0
0
0
0
0
0
0
0
0
0
0
0
0
0
0
0
0
0
0
0
0
0
0
0
0
0
0
0
1
1
0
0
0
0
0
0
0
0
0
0
0
0
0
1
0
0
0
0
0
0
0
0
0
0
0
0
0
0
0
0
0
0
0
0
0
0
0
0
0
0
0
0
0
0
0
0
0
0
0
0
0
0
0
0
0
0
0
0
0
0
0
0
0
0
0
0
0
0
0
0
0
0
0
0
0
0
0
0
0
0
0
0
0
0
0
0
1
1
0
0
0
0
0
0
0
0
1
0
0
0
0
0
0
0
0
0
0
0
0
0
0
0
0
0
0
0
0
0
0
0
1
0
0
0
0
0
0
0
0
0
0
0
0
0
0
0
0
1
0
0
0
0
0
0
0
0
0
0
0
0
0
0
0
0
0
0
0
0
0
0
0
0
0
0
0
0
0
0
0
0
0
0
0
0
0
0
0
0
0
0
0
0
0
0
0
0
0
0
0
0
0
0
0
0
0
0
0
0
0
0
0
0
0
0
0
0
0
0
0
0
0
0
0
0
0
0
0
0
0
0
0
0
0
0
0
0
0
0
1
1
0
0
0
0
0
1
0
0
0
0
0
0
0
0
0
0
0
0
1
0
0
0
0
0
0
0
0
0
0
0
0
0
0
0
0
0
0
0
0
0
0
0
0
0
0
0
0
0
0
0
0
0
0
0
0
0
0
0
0
0
0
0
0
0
0
0
0
0
0
0
0
0
1
0
1
0
0
0
0
0
0
0
0
0
0
0
0
0
0
0
0
0
0
1
0
0
0
0
0
0
0
0
0
0
0
0
0
0
0
0
0
0
0
0
0
0
0
0
0
0
0
0
0
0
0
0
0
0
0
0
0
0
0
0
0
0
0
0
0
0
0
0
0
0
0
0
0
0
0
0
0
0
0
0
0
0
0
0
0
0
0
0
0
0
1
0
0
0
0
0
0
0
0
0
0
1
0
0
0
0
0
0
0
0
0
0
0
0
0
0
0
0
0
0
0
0
0
0
0
0
0
0
0
0
0
0
0
0
0
0
0
0
0
1
0
0
0
0
0
0
0
0
0
0
0
0
0
0
0
0
0
0
0
0
0
0
0
0
0
0
0
0
0
0
0
0
0
0
0
0
0
0
0
0
0
0
0
0
0
0
0
0
0
0
0
0
0
0
0
0
0
0
0
0
0
0
0
0
0
0
0
0
0
0
0
0
0
0
0
0
0
0
0
0
0
1
0
0
0
0
0
0
0
0
0
0
0
0
0
0
0
0
0
0
0
0
0
0
0
0
0
0
0
0
0
0
0
0
0
0
0
0
0
0
0
0
0
0
0
0
0
0
0
0
0
0
0
0
0
0
0
0
0
0
0
0
0
0
0
0
0
0
0
0
0
0
0
0
0
0
0
0
0
0
0
0
0
0
0
0
0
0
0
0
0
0
0
0
0
0
0
0
0
0
0
0
0
0
0
0
0
0
0
0
0
0
0
0
0
0
0
0
0
0
0
0
0
0
0
1
0
0
0
0
0
0
0
0
0
0
0
0
0
0
0
0
0
0
0
0
0
0
0
0
0
0
0
0
0
0
0
0
0
0
0
0
0
0
0
0
0
0
0
0
0
0
0
0
0
0
0
0
0
0
0
0
0
0
0
0
0
0
0
0
0
0
0
0
0
0
0
0
0
0
0
0
0
0
0
0
0
1
0
0
0
0
0
0
0
1
0
0
0
0
0
0
0
0
0
0
0
0
0
0
0
0
0
0
0
0
0
0
0
0
0
0
0
0
0
0
0
0
0
0
0
0
0
1
0
0
0
0
0
0
0
0
0
0
0
0
0
0
0
0
0
0
0
0
0
1
0
0
0
0
0
0
0
0
0
0
0
0
1
1
0
0
0
0
0
0
0
0
0
0
0
0
0
0
0
1
1
0
1
0
0
0
0
0
0
0
0
0
1
0
0
0
0
0
0
1
0
0
0
0
0
0
0
0
0
0
1
0
0
0
0
1
0
1
0
0
0
0
0
0
0
1
0
0
0
1
0
0
0
1
0
1
1
0
0
1
1
0
0
0
1
0
0
0
1
0
0
0
0
0
0
0
0
0
1
0
0
0
0
0
0
1
0
0
0
0
0
0
0
0
0
0
0
0
0
0
0
0
0
0
0
0
0
0
0
0
0
0
0
1
0
0
1
0
0
0
0
0
0
0
0
0
0
0
0
0
0
0
0
0
0
1
0
0
1
0
0
0
0
0
0
0
0
0
0
0
1
0
0
1
0
0
0
0
0
0
0
0
0
0
0
1
1
0
0
0
0
0
0
0
0
0
0
0
0
1
0
0
0
0
0
0
0
0
0
0
0
0
0
0
0
0
0
1
0
0
0
0
0
0
0
0
0
0
0
0
0
0
0
0
0
1
0
0
0
0
0
0
0
0
0
0
0
0
0
0
0
0
0
0
0
0
0
0
0
0
0
0
0
0
0
0
0
0
0
0
0
0
0
0
0
0
1
0
0
0
0
0
0
0
0
0
0
0
0
0
0
0
0
0
0
0
0
0
0
0
0
0
0
0
0
0
0
0
0
0
0
0
0
0
0
0
0
0
0
0
0
0
1
0
0
0
0
0
0
0
0
0
0
0
0
0
0
0
0
0
0
0
0
0
0
0
0
0
0
0
0
0
0
0
0
0
0
0
0
0
0
0
0
0
0
0
0
0
0
0
1
0
0
0
0
0
0
0
0
0
0
1
0
0
0
0
0
0
0
0
0
0
0
0
0
0
0
1
0
0
1
0
0
0
0
0
0
0
0
0
0
0
0
0
0
0
0
0
0
0
0
0
0
0
1
0
0
0
0
0
0
0
0
0
0
0
0
0
0
0
0
0
0
0
0
0
0
0
0
0
0
0
0
0
0
0
0
0
0
0
1
0
0
0
0
0
0
0
0
0
0
0
0
0
0
0
0
0
0
0
0
0
0
0
0
0
0
0
0
0
0
0
0
0
0
0
0
0
0
0
0
0
0
0
0
0
0
0
0
0
0
0
0
0
0
0
0
0
0
0
0
0
0
0
0
0
0
0
0
0
0
0
0
0
0
0
0
1
0
0
0
0
0
0
0
0
0
0
0
0
0
0
0
0
0
0
0
0
0
0
0
0
0
0
0
0
0
0
0
0
0
0
0
0
0
0
0
1
0
0
0
0
0
0
0
0
0
0
0
0
1
1
0
0
0
0
0
0
0
0
0
0
0
0
0
0
0
0
0
0
0
0
0
0
0
0
0
0
0
0
0
0
0
0
0
0
0
0
0
0
0
0
0
0
0
0
0
0
0
0
0
0
0
0
0
0
0
0
0
0
0
0
0
0
0
0
0
0
0
0
0
0
0
0
0
0
0
0
0
0
0
0
0
0
0
0
0
0
0
0
0
0
0
0
0
0
0
0
0
0
0
0
0
1
0
1
0
0
0
0
0
0
0
1
1
1
1
0
0
0
0
0
0
0
0
0
0
0
0
0
0
0
0
0
0
0
0
0
0
0
0
0
0
0
0
1
1
0
0
0
0
0
0
0
0
0
0
0
0
0
0
0
0
0
0
1
0
0
0
0
0
0
0
1
1
0
1
1
0
0
1
0
0
0
0
0
0
0
1
0
1
0
0
0
0
0
0
0
0
0
0
0
0
0
0
0
0
0
0
0
0
0
0
0
0
0
0
0
1
1
0
0
0
1
1
0
0
0
0
1
0
0
1
0
1
0
0
0
0
0
1
0
0
0
1
0
0
0
0
0
0
0
0
0
0
0
0
0
0
0
0
0
0
0
0
0
0
0
0
0
0
0
1
0
0
0
0
0
0
1
0
0
0
0
0
0
0
0
0
0
0
0
0
0
0
0
0
0
0
0
0
0
0
0
0
0
0
0
0
1
0
1
0
0
0
0
0
0
0
1
0
0
0
0
0
0
0
0
0
0
0
1
0
0
0
0
0
0
0
0
0
1
0
0
0
0
0
0
0
1
0
0
0
0
0
0
0
1
0
0
0
0
0
0
0
0
0
0
0
0
0
0
0
0
0
0
0
1
0
1
0
0
0
0
0
1
0
0
0
0
0
0
0
0
0
0
0
0
0
0
0
0
0
0
0
0
0
0
0
0
0
1
0
1
0
0
0
0
0
0
0
0
0
1
0
0
0
0
0
1
0
0
0
0
0
0
0
0
0
0
0
0
0
0
0
1
0
0
0
0
0
0
0
0
1
0
0
0
0
0
0
0
0
0
0
0
0
0
0
0
0
0
0
0
0
0
0
0
0
0
0
0
0
0
0
1
0
0
0
0
0
0
0
0
0
0
0
0
0
0
0
0
1
0
0
0
0
0
0
0
0
1
0
0
0
0
0
0
0
0
0
1
0
0
0
0
0
1
0
0
0
0
0
0
0
0
0
0
0
0
0
0
0
0
0
0
0
1
0
0
0
0
0
0
1
0
0
0
0
0
0
0
0
1
0
0
0
0
0
0
0
0
0
0
0
0
0
0
1
0
0
1
0
0
0
1
0
0
0
0
0
0
0
0
0
0
0
0
0
0
0
0
1
0
0
0
0
0
0
0
0
0
0
1
0
1
0
0
0
0
0
0
1
0
0
0
0
0
0
0
0
0
0
0
0
0
0
0
0
0
0
0
0
0
0
0
0
0
0
0
1
1
0
0
0
0
0
0
1
0
0
0
0
0
0
0
0
0
0
0
0
0
1
0
0
0
0
0
0
0
1
0
0
0
0
0
0
0
0
0
0
0
0
0
0
0
0
0
0
0
0
0
0
0
0
0
0
0
1
0
0
0
0
0
0
0
0
0
0
1
0
0
1
0
0
0
0
0
0
0
0
0
0
0
0
0
0
0
0
0
0
0
0
0
0
0
0
0
0
0
0
0
1
0
0
0
0
0
0
0
1
0
0
0
0
0
0
0
1
0
0
0
0
1
0
0
0
0
0
0
0
0
0
0
0
1
0
1
0
0
0
1
0
				</DataArray>
				<DataArray type="Float64" Name="h" NumberOfComponents="1" Format="ascii">
0.9397786308
0.9397859505
0.9277536194
0.9388320002
0.9289233013
0.9335449918
0.9351163867
0.9391370077
0.9396353681
0.9407263203
0.9416928391
0.9326745154
0.9374777075
0.9432971741
0.9406251400
0.9319689895
0.9371458917
0.9396016169
0.9387670579
0.9435693866
0.9168293144
0.9343049113
0.9395342279
0.9206783597
0.9403848363
0.9345412269
0.9302359906
0.8504116492
0.9357535593
0.9430131981
0.9448256925
0.9391570914
0.9302533524
0.9267702836
0.8624687881
0.9186541714
0.8939679780
0.9388839892
0.8527495548
0.9146518885
0.9316548222
0.8411352341
0.9350028092
0.9357529255
0.9121126017
0.8908775368
0.9397669631
0.8374837774
0.7499283178
0.7404113442
0.9064582361
0.9111564859
0.9311296876
0.7368567433
0.8709206766
0.9264423136
0.8832568047
0.8017796611
0.7749707979
0.7588342188
0.7860304972
0.7933620744
0.7522594471
0.9032024698
0.9225138993
0.7541496235
0.7291240965
0.7421328780
0.7856330597
0.7988618584
0.7801149915
0.8636370985
0.9302319158
0.7390442100
0.7553870356
0.7856595908
0.7956266293
0.7714668498
0.8192519808
0.8083068087
0.7856457066
0.7325691137
0.7607387760
0.7302710858
0.8698553255
0.7286764276
0.7844047623
0.7160106797
0.7564185025
0.7569482480
0.7714262394
0.7700403908
0.7744874789
0.7510890066
0.7109891916
0.7232826656
0.7059682601
0.8592015828
0.7995865497
0.7808956601
0.7587533147
0.7904639242
0.7159296970
0.8221912726
0.9405674666
0.7183498695
0.6975932145
0.7549042135
0.7651047512
0.7133298160
0.7457361666
0.7532448672
0.7678686416
0.7610016085
0.7268993490
0.7812291364
0.7211018312
0.9438717652
0.7665016207
0.7387572441
0.9388234664
0.7093984968
0.7151952863
0.9436938438
0.7558832171
0.7580656828
0.7321450561
0.9421320486
0.7904214849
0.7748909098
0.7789458830
0.6992646415
0.7440910942
0.7993144289
0.9427113384
0.7726566858
0.9355854141
0.7916074860
0.7943693447
0.9247474675
0.9420197997
0.9445384922
0.7819752220
0.9204696214
0.7071171618
0.7827171166
0.9293275323
0.7746862723
0.9415650435
0.7775380327
0.9379484669
0.7991336589
0.7932350683
0.7965968738
0.7923638607
0.7815597220
0.7954871927
0.9404714349
0.7837538247
0.9372194378
0.9203287932
0.7819000000
0.9317255550
0.9384700922
0.9410039205
0.7695402789
0.9171350394
0.9267668958
0.9412686121
0.7815476570
0.7989862918
0.9370054600
0.7938622684
0.9388165241
0.9091458674
0.7859728329
0.9145497612
0.7637151362
0.7879110588
0.9395869719
0.7756788669
0.8979080018
0.9383041243
0.6986489834
0.9366011184
0.9343447414
0.9116513380
0.7850412406
0.9393141817
0.9307108457
0.8672923267
0.7920268615
0.9356592984
0.8921329445
0.7838684184
0.7656162857
0.9399978802
0.8073040899
0.8416183304
0.7669757279
0.9302771726
0.6883578387
0.9330387522
0.7801424234
0.7358860879
0.9435948856
0.9222833023
0.9367098702
0.7654807005
0.9047554120
0.8533246229
0.9345039247
0.9430576413
0.9465519163
0.9300096768
0.8029169448
0.9137289834
0.9432141006
0.8812266353
0.9392364319
0.7063161345
0.7506064945
0.8952958864
0.7315905489
0.6816960890
0.7634622284
0.7594672911
0.7036035420
0.6916305512
0.7561207007
0.7702557541
0.7425345091
0.6890304714
0.7641456020
0.7623284829
0.7179202184
0.8253133755
0.9113494075
0.9392906069
0.8827262956
0.8062367431
0.9326142292
0.9480922968
0.8950927949
0.9341783932
0.9170090771
0.9470816994
0.8613434668
0.9228261391
0.9457360180
0.8977825668
0.8411323554
0.9453069161
0.7709080085
0.7596637280
0.9521768591
0.9063271576
0.9262386949
0.9465511107
0.7393980767
0.8649076178
0.6750393853
0.6946362147
0.7264698394
0.6833291476
0.7595272526
0.7601361302
0.6947494868
0.7607782904
0.7488653987
0.7586860882
0.8817991589
0.7549659137
0.7124235550
0.7271279124
0.6816530564
0.6805678065
0.7110097413
0.7394590506
0.6807388610
0.7586444261
0.7595550385
0.7601613223
0.7601646854
0.7551775611
0.7486162331
0.6966814481
0.8971317245
0.9503043858
0.9505973501
0.9026531037
0.7786095620
0.9264611741
0.9280646523
0.8564907929
0.7611684166
0.8689567210
0.9132068742
0.9455833491
0.9521718094
0.9555456175
0.9165977228
0.8174869531
0.7187461514
0.7324345080
0.8781705937
0.7984986491
0.8873907595
0.9452499466
0.6680966298
0.7038205939
0.6874652908
0.7578296975
0.6781387557
0.7592043420
0.7350493516
0.8299994314
0.7538797737
0.7594880887
0.8464790906
0.7214228667
0.6746732635
0.7472500623
0.7584710573
0.6741267520
0.6868795019
0.7044085706
0.7576830129
0.7206110493
0.7461760708
0.7582447516
0.7604457688
0.7578022042
0.6692331879
0.7360515815
0.6723172931
0.7549252731
0.8863972315
0.7669153186
0.8297198568
0.7238368735
0.8380190549
0.9505504789
0.7349328035
0.9190834515
0.8823997144
0.9202245135
0.9505697338
0.7677613206
0.6744609932
0.6907109553
0.7285348889
0.9048788999
0.9431909072
0.7734145835
0.8583811206
0.7010451208
0.7606189329
0.8643019514
0.7538884390
0.7541628217
0.7687130230
0.9555356202
0.7726514944
0.6998764869
0.9025040602
0.6502204357
0.6692461254
0.6980806719
0.9553312768
0.7256875034
0.7679021867
0.9432896470
0.7607960496
0.7303501443
0.7174299389
0.7594045411
0.9620809090
0.7604423758
0.6627772197
0.6638892419
0.7528905617
0.7572286777
0.7977982398
0.7458806988
0.8078021614
0.6671352360
0.6958214521
0.6829673001
0.8384323225
0.7581730259
0.6604799570
0.7139868926
0.6573486546
0.7622215710
0.7332637715
0.9862631429
0.9338791659
0.9058253490
0.7278939802
0.6699016840
0.7586232695
0.7652276678
0.7434482470
0.6913412510
0.7579546383
0.7549549038
0.6631141755
0.6789156154
0.8024145145
0.6998668241
0.6622378782
0.7399602122
0.6871288334
0.8703071805
0.7683668035
0.7602087049
0.8111790994
0.7426311321
0.6660029307
0.6397256100
0.6475125459
0.9119140095
0.7627263911
0.7718513073
0.7077903281
0.7625341136
0.9488370608
0.7605511779
0.7062697888
0.6852465675
0.7775570522
0.7387288505
0.7724446876
0.7124863983
0.7130357617
0.7911416707
0.7518754892
0.7643673089
0.6234623396
0.6990520712
0.7660849606
0.8931521507
0.7804110817
0.6537365863
0.8430775930
0.6763749601
0.7431247220
0.7247196371
0.7722217923
0.7554608321
0.7605167076
0.9553172897
0.6586472276
0.7405187524
0.6475180642
0.7821367863
0.7803820583
0.7329266477
0.7883636507
0.9396166422
0.6779445296
0.8591952708
0.7583346968
0.7768542164
0.7262653767
0.6907849012
0.6637216674
0.6998077480
0.9063630457
0.7615143542
0.7940007659
0.7519726440
0.7225815163
0.6559900487
0.6903783610
0.7990730567
0.8196403366
0.9465452615
0.9676212627
0.9659348796
0.6681619769
0.8851927677
0.7597588454
0.8262815880
0.8064537807
0.7592619922
0.9545944240
0.7087945688
0.9491445961
0.6912404000
0.6581967645
0.8052650139
0.9365133728
0.9862624357
0.8733684549
0.8284375112
0.8177214234
0.7409258905
0.9880984141
0.8184233693
0.8077748631
0.8586508882
0.9058460877
0.7279240588
0.7581439420
0.6748218253
0.9527031399
0.6549836417
0.7672645453
0.9545882277
0.6919811365
0.7891951306
0.7940349153
0.6089827566
0.9465292305
0.7751811134
0.6539321302
0.9478895455
0.8005975222
0.6919990724
0.7211891115
0.7001916347
0.7672242231
0.8666859676
0.7888530171
1.0246952179
0.7564095563
0.6315574127
0.6964268385
0.7648437518
0.8592136180
0.7438341066
0.9121900579
0.9063473236
0.7376515016
0.9364995257
0.8284678990
0.9526884138
0.6315602574
0.6681680836
0.7826943302
0.9331991381
0.9528125670
0.8652993414
0.8363370224
1.0074567088
0.7226131933
0.8257349471
0.9622898749
0.7857800403
0.9009282141
0.8920614042
0.6498738000
0.9394225138
0.6132172890
0.6703496974
0.9874112028
0.7773429716
0.7810874378
0.7293837608
1.0047836199
0.7804102764
0.8851881005
0.6922960674
0.7519221304
0.7581823453
0.6907799063
0.7986171851
0.7605923170
0.7651238026
0.7585644753
0.8039066909
0.7806952837
0.6659926877
0.9504717724
0.6528199999
0.6136362438
0.7892060944
0.7306655714
0.8384219858
0.7247544954
0.8184325377
1.0356150434
0.6815053056
0.9204750471
0.7644165664
0.7400057266
0.6763681551
1.0204692509
0.7626104557
0.7519524861
0.8932380483
0.6922815143
0.9997841027
0.6586331591
0.6956283437
0.9531765533
0.8073225214
0.7795186491
0.6634180430
0.7669855316
0.8034844401
0.8706684540
0.7078036562
0.9602712053
0.8391034095
0.8194136529
0.7602500600
1.0401241137
0.8850104557
0.9354003487
0.8205390377
1.0351830661
0.6136365799
0.8993560444
0.8085946009
0.9121842724
0.7651572260
0.6964472836
0.8667027625
0.7812174535
0.5909984764
0.9450083919
0.9478757133
0.8026804035
1.0457250897
0.8510591800
0.9394127616
1.0028127012
0.8391075095
1.0393052626
0.9721635486
0.6703611356
0.8006259891
0.7294142581
0.8920612231
0.8486758879
0.8458514935
0.8359632698
0.7697903362
0.9527991800
0.8885356936
0.7898296896
0.7224024091
0.8018435059
0.8181058681
0.6498756086
0.9258193743
0.8165983698
1.0541466819
0.8283717690
0.9521965357
0.9185485225
1.0559437791
0.7574632011
0.6894825378
0.8363630793
0.8405388099
0.8624629353
0.9527014754
0.9361847633
0.8244778682
0.8528823430
0.8401870711
0.8282007783
1.0450714875
0.7929503309
0.9472030741
0.8946288903
0.8261529577
0.8281233382
0.7376603241
0.9335201814
0.7877038145
1.0249584059
0.8569009803
1.0346117493
1.0136564165
0.8517824177
0.8583014370
0.8302712304
0.8817548059
0.8667889403
0.9304957213
0.9683130602
1.0501591966
0.8668139415
0.8518810735
0.8641906043
0.9624552695
0.9909225208
1.0487373244
1.0411003385
1.0287418434
0.8682335919
0.8707139769
0.8440483811
0.8594248806
1.0516716881
0.8690511692
0.8625201313
1.0454312997
0.8458399887
0.8436247303
1.0401348553
0.8627788018
0.9009370018
0.8513045485
1.0026774615
0.9786770150
0.8638871880
1.0351921793
0.8606619965
0.8409414209
1.0047929729
0.8335483196
1.0243137517
1.0352640960
0.8328260922
0.8191815524
0.9987792348
0.9379024643
0.9374670365
0.9374910412
0.9379115168
0.9377247989
0.9326770618
0.9416937513
0.9410021402
0.9337432067
0.9335313925
0.9289504173
0.9337754228
0.9396370985
0.9406231116
0.9351042492
0.9430236387
0.9410086023
0.9377264033
0.9402597841
0.9395993753
0.9388321600
0.9277597491
0.9387747912
0.9430167974
0.9362508347
0.9318695902
0.9391354806
0.9345421332
0.9403870341
0.9407300155
0.9364451259
0.9374838270
0.9241078551
0.9298998715
0.9379563136
0.9430217303
0.9448290348
0.9402676443
0.9267844269
0.9302540749
0.9391195307
0.9270793166
0.9146301486
0.8852001064
0.9371362485
0.9319757729
0.9350330831
0.8520105056
0.9318625160
0.9362581884
0.9315811018
0.9432942947
0.9435611372
0.9241165088
0.9395460262
0.8217067600
0.9343009849
0.9040865463
0.9364460451
0.9168251969
0.9379504843
0.9362391946
0.7991928810
0.8374940249
0.9299109433
0.9120538593
0.9064667221
0.9396991984
0.8510456039
0.9207079157
0.9358361240
0.8828586980
0.9143352775
0.9302092059
0.8805593442
0.9377223976
0.8858255471
0.8358724990
0.8583556605
0.9270737081
0.9309063319
0.8216722381
0.7467042523
0.7466284498
0.9362120810
0.9041056178
0.8882200522
0.7995239371
0.9187374356
0.9220882754
0.9389014644
0.8302907581
0.8624763174
0.7522734015
0.7421193670
0.7970185737
0.8939703398
0.9030699006
0.8359109831
0.8007535620
0.7826592948
0.9359731157
0.7390599371
0.7534928622
0.8636093582
0.9302075100
0.7956466057
0.9166019965
0.9272086253
0.8805760166
0.7902242108
0.8583620066
0.8412681077
0.7956627065
0.7801572679
0.7447640555
0.7554237584
0.9147592461
0.9358243222
0.7856574235
0.8792713308
0.9377307280
0.7988701521
0.8882613658
0.8302705215
0.7564685838
0.7972143492
0.7351866876
0.8007796977
0.7367404190
0.7499289595
0.9113646698
0.7466222820
0.8913895070
0.7324852005
0.7302455610
0.7644915709
0.7467251556
0.7404412207
0.7860042143
0.7933488304
0.9358911047
0.7821834321
0.7447354191
0.7749227767
0.7800594263
0.7534502815
0.8370385970
0.9227979866
0.8007095739
0.8792767048
0.8013461335
0.8709924492
0.7803319864
0.7956240691
0.7902091109
0.9264160940
0.7359797994
0.7613378479
0.9168201221
0.7368154955
0.7826008067
0.7587725949
0.7695839225
0.8017573862
0.9275173798
0.7745257532
0.7351896184
0.8221905943
0.7989418312
0.7645144138
0.8981928524
0.8007325907
0.7904921364
0.7258993090
0.7741267963
0.7231749004
0.7544539940
0.7587879588
0.7291976762
0.8397294225
0.8585930178
0.7896525726
0.7230479692
0.7675967732
0.7368141935
0.7809419208
0.7182473278
0.7568647471
0.7626556766
0.7360042602
0.7651418601
0.7532382164
0.7821564144
0.7612905448
0.7678972460
0.8013178850
0.7860069094
0.7429122367
0.7800001943
0.7714317615
0.9228540779
0.7766753485
0.8373763846
0.7456848981
0.7132916403
0.7802951222
0.7740912640
0.7626230617
0.7314478397
0.7896279105
0.7289325721
0.7093845261
0.7499351225
0.8397338763
0.9405064666
0.7675678852
0.7231812067
0.8702690454
0.8089076652
0.7843663300
0.7607039340
0.7856100658
0.7211188520
0.8192345254
0.7260367797
0.9388204159
0.7160684649
0.8984515798
0.7766241071
0.6992223287
0.7359584571
0.9356679650
0.7581075479
0.7607581797
0.7661275919
0.7563896687
0.7110730447
0.7511241022
0.7691283908
0.7569365092
0.7713753730
0.7618993015
0.8088894644
0.7558877760
0.7321698179
0.7430145460
0.7749278125
0.7159387381
0.7645948759
0.7327629429
0.7314340176
0.9405111750
0.7499107841
0.7565782268
0.9427133873
0.7727257142
0.7441181542
0.9405744622
0.7060162207
0.7069850765
0.7241673796
0.9445400411
0.7503375574
0.9356702169
0.7690803265
0.7609757533
0.7548863578
0.9362718733
0.8088846211
0.7660843910
0.7268914006
0.9415643616
0.7360828439
0.7820461701
0.9421424068
0.7811730493
0.7607398218
0.7827841696
0.7618537429
0.6976552590
0.9443209379
0.7515725751
0.7204849125
0.7986982791
0.7645615899
0.7565551857
0.9381229387
0.7930565788
0.7612149244
0.7896989972
0.7387389123
0.7329287079
0.7991868491
0.9438685586
0.7880836777
0.7664440345
0.9447328925
0.9379577498
0.7932960901
0.7924011628
0.9362762193
0.9421425412
0.9267687438
0.9409995907
0.7503276222
0.7850716224
0.9443176223
0.9402835227
0.7720086351
0.7126773636
0.7243235139
0.9436922948
0.7903534010
0.9203268463
0.9428449728
0.7153071661
0.7788759726
0.9455048410
0.9317343270
0.7921978739
0.7819545298
0.9421315841
0.7838008665
0.7896506294
0.9355889386
0.7992554989
0.7903858042
0.7070534607
0.7611672050
0.7866820315
0.7915439165
0.7939161883
0.9461321193
0.9400119978
0.7943269961
0.9447278629
0.7206326916
0.9381166547
0.7986421454
0.7517746368
0.7880289929
0.7815907481
0.7976475784
0.7929887629
0.7990372639
0.9388142467
0.7774980798
0.9383045391
0.6995611918
0.9428476626
0.9402843740
0.7658597220
0.7915241908
0.7882480574
0.9204625960
0.7746277372
0.9293233025
0.9395868595
0.7719632964
0.9455019049
0.7127924123
0.9401569702
0.9420209625
0.7757179121
0.7921358684
0.9145625551
0.7963322802
0.9247530507
0.7850192671
0.9392303147
0.9393125834
0.7815218932
0.7954379389
0.9400057348
0.6932586664
0.7903344570
0.9458201424
0.9461274699
0.7071692357
0.9365989823
0.7866303794
0.7965417761
0.9404719925
0.7975966765
0.9116027578
0.6892622214
0.7839278265
0.9171213398
0.9392316877
0.7658311485
0.7656632491
0.9401545487
0.7882020730
0.7962867624
0.7691755640
0.9365543619
0.7914691182
0.6996323686
0.9396915223
0.7920772591
0.7986257995
0.9384706644
0.7694989903
0.8919620581
0.7679995435
0.9372200958
0.6883249697
0.7806594953
0.9370073200
0.9330357072
0.9091423846
0.7801825197
0.6933408419
0.9412692741
0.9302731120
0.9458174618
0.8413746678
0.7758774188
0.7878589670
0.9413948764
0.9365561538
0.9396925562
0.9345015953
0.7679655117
0.7691164203
0.9406036650
0.7631006049
0.8979855562
0.7985744931
0.7859131502
0.6893137737
0.9337963889
0.9329658777
0.7636824441
0.9430632276
0.7652958766
0.8674792744
0.7702791440
0.7806085545
0.9307143536
0.7758283962
0.7745214369
0.7718048334
0.6987022123
0.9343477265
0.7849940424
0.7062682941
0.9470889701
0.9170166027
0.9416846471
0.9342018460
0.8075007019
0.9329688368
0.7413914396
0.9373949923
0.8950842522
0.9412162864
0.9413915932
0.8251678091
0.9356605488
0.9371037526
0.7630664202
0.9399943381
0.9425679767
0.9262575895
0.9409504211
0.7708020604
0.9063292676
0.9453194587
0.8612358264
0.9337985729
0.9392895177
0.9406008742
0.7653899280
0.7158614908
0.7359717144
0.7744869427
0.7485152111
0.8817550317
0.7717648029
0.7269479998
0.6807400869
0.7601699056
0.7586583719
0.7612897598
0.6965667972
0.6947474758
0.7549346828
0.7669425451
0.7392383259
0.6832895661
0.7607981818
0.7602712908
0.7595390659
0.7122637915
0.8534833017
0.9026646164
0.9404836567
0.9392355955
0.8689215203
0.7785193687
0.9412027519
0.7414696247
0.9416774277
0.9423882750
0.7124011151
0.9280978936
0.9503178486
0.9373948264
0.9047585654
0.9366945534
0.9222777469
0.9435902658
0.8813165926
0.9166230980
0.9452697475
0.9371055495
0.8873862209
0.8173865876
0.9432039206
0.8030841271
0.7323960542
0.9377596847
0.9483814227
0.9137311915
0.9409340825
0.9299949062
0.9425685063
0.7426607510
0.8464064535
0.6928020473
0.6723464276
0.6868248791
0.7204216398
0.6891040266
0.7602494848
0.7623086246
0.7576744059
0.6916429438
0.7641253141
0.7600765046
0.7460409077
0.7582424064
0.8953239937
0.7653693272
0.7561317995
0.7180523716
0.7317488507
0.6781755574
0.6746828919
0.7036847289
0.7348686964
0.6817241180
0.7594458672
0.7612663597
0.7578305584
0.7158797648
0.7634474956
0.7584603884
0.7538128143
0.7598633999
0.7506704516
0.7037207528
0.8864056078
0.9373980116
0.9480815649
0.9423856341
0.9505689072
0.9113379414
0.8063608774
0.6847700854
0.9202587000
0.7124185990
0.9325886058
0.8379680309
0.7348875517
0.8827471580
0.9404633404
0.9049055631
0.9432133432
0.9483789417
0.9527847018
0.9228015122
0.8412357079
0.6998754612
0.9330020155
0.7597524516
0.9377337467
0.8642798259
0.7725813114
0.8977819046
0.9457182378
0.6631534312
0.7111573796
0.6789262914
0.7595523088
0.6816324864
0.7585982031
0.7396080258
0.8077326543
0.7552138635
0.7598568981
0.7607294853
0.7579134957
0.6730624461
0.8649664405
0.7138604374
0.6806027360
0.7433140387
0.7601613877
0.6671674873
0.6947324449
0.6957663472
0.7601345989
0.6927790117
0.7608184096
0.7266413077
0.7489727296
0.7586769780
0.7593607422
0.7572014691
0.6639328389
0.7301955641
0.6750350534
0.7528025590
0.7600620612
0.7683194952
0.6852424567
0.6672407176
0.7426050824
0.8971161776
0.9373746101
0.7665295489
0.7728918653
0.8111350624
0.6853708514
0.7062452277
0.8565274875
0.7419112093
0.7626926142
0.7716044681
0.9505813803
0.7612445089
0.6847524304
0.9119422342
0.8703022619
0.9264313180
0.6622391815
0.6486851113
0.7130319532
0.9488560674
0.7128596236
0.7631403113
0.9326797552
0.7682440473
0.6751030999
0.6779481717
0.7346470754
0.9131790188
0.9455619050
0.7640098440
0.7737094274
0.8430461869
0.6990043190
0.7404726744
0.8781759228
0.7507378252
0.7580947038
0.7671750544
0.9527775867
0.7985842701
0.7187765960
0.9272898630
0.8931723449
0.9329739802
0.6544692236
0.6644744800
0.7025368063
0.9548936760
0.7277308283
0.7695553113
0.9396363400
0.8110491559
0.7596890241
0.6595789078
0.7362026346
0.6924412874
0.7624935075
0.7087443364
0.7604731238
0.9676228846
0.9841536202
0.9120608884
0.7592194899
0.9491363989
0.7746717765
0.6582263867
0.7608478336
0.6691888469
0.7335650702
0.7549847150
0.6652111884
0.7578173694
0.7768033595
0.7408331385
0.8300658084
0.6741178388
0.7045059824
0.8514180084
0.6748440108
0.8586240957
0.7582738239
0.6560142628
0.7215685613
0.6634106870
0.7614514606
0.7261772974
0.7607525923
0.9636908652
0.9769721031
0.9540447261
0.7625130172
0.9257173385
0.7391070007
0.6637440894
0.7592198489
0.6730278944
0.7794896538
0.7473722917
0.6997924034
0.7595104367
0.7518970988
0.6680679479
0.6874979229
0.8196108632
0.6903770155
0.6640731129
0.7860594598
0.7456750660
0.7649694793
0.6539314348
0.6853775889
0.7211772841
0.7487659819
0.8823902421
0.7685811113
0.7720049015
0.7621606420
0.7685350105
0.6124016867
0.8297597031
0.7480620984
0.6697333176
0.6486848582
0.6875484484
0.6496444760
0.7091800463
0.9190569486
0.7648252355
0.7716532462
0.7160934435
0.7773185026
0.7480280808
0.7648278108
0.7633145928
0.9505515346
0.6552271896
0.7631685625
0.7238812790
0.6502187153
0.6397264137
0.7857434074
0.7810525573
0.6875432179
0.7438218687
0.7786552597
0.7419298355
0.7729276815
0.7893126412
0.9326589771
0.6672241421
0.7128674841
0.7188759746
0.7718000788
0.6744662350
0.7886065415
0.7556423347
0.7605273963
0.7648785915
0.6331554990
0.6688975442
0.6986962277
0.7609868405
0.9024786391
0.7665866893
0.7837623030
0.7647541053
0.6332463025
0.8583992504
0.7541948795
0.6823186265
0.6407213440
0.6407169736
0.7355214846
0.9272665091
0.7678001985
0.7734601411
0.7322366095
0.7723936119
0.7549150564
0.7599694255
0.9548822877
0.6618466016
0.7124769403
0.7539164614
0.7606790449
0.6496491439
0.7811778004
0.7797184216
0.6980848861
0.7288107858
0.7750497884
0.7277393138
0.7695873905
0.7909430302
0.9432691142
0.6907227277
0.6990106494
0.7285522491
0.8707945242
0.7582100882
0.8205241751
0.8034603739
0.7625452980
0.7978523079
0.9659388540
0.7333721962
0.9257305302
0.7585567324
0.6982878361
0.6698774383
0.6913614491
0.8072974549
0.9282701490
0.9841535105
0.9130177633
0.7622765438
0.8864735400
0.8103605336
0.8165789691
0.7550237921
0.9751857037
0.8018959775
0.8082690063
0.8110806698
0.9338894694
0.6973831146
0.6974083580
0.7378216650
0.6604414230
0.6999069013
0.7956407478
0.8024469652
0.7336679725
0.9493406309
0.9620750400
0.6528318768
0.7058594380
0.9845795999
0.9740444839
0.6763467723
0.9916570300
0.7977366539
0.8940869419
0.7608499724
0.8193965046
0.8018574157
0.7604721992
0.9539125355
0.7175180840
0.9540526436
0.7109975620
0.6627411408
0.7336860903
0.8018158741
0.9402616748
0.9769669485
0.9232301545
0.7625393319
0.8932160624
0.8428731797
0.8120967418
0.7459769819
0.9845851908
0.8115328263
0.8024219947
0.8384648595
0.9120765695
0.7391311860
0.8468729664
0.7737105179
0.6595628588
0.6829599067
0.7927350220
0.8514414127
0.9543985240
0.9636841830
0.9381146694
0.6581077446
0.7711408469
0.9611916658
0.9751780674
0.7044033396
0.7817417742
0.7026106139
0.9282558269
0.8103942578
0.6124015533
0.9493233259
0.7720183587
0.6234626324
0.6581024242
0.8343272442
0.6678190248
0.9754918968
0.9462970976
0.9151989246
0.7797857232
0.7885673780
0.7154497919
1.0080856613
0.7044320567
0.7878779151
0.7154622750
0.7025352004
0.7091874102
0.9383875814
0.7647899635
0.7640784445
0.6089818468
0.6544676371
0.7798234268
0.8697275825
0.8568879314
0.7860800805
0.7581350756
0.6270128342
1.0117370488
0.6640749424
0.9276722470
0.7487782507
0.7256987968
0.6284851912
0.6488358700
0.7724109949
0.6539516783
1.0166369317
0.7669829754
0.7918352841
0.6644745883
0.7650001577
0.7879323670
0.6884257285
0.9923819708
0.7650187738
0.7772479720
0.8707992702
0.7393344542
0.7422149584
0.9077698438
0.9130000589
0.7679271340
0.7493784982
0.9402456124
0.8428982337
0.6184203562
0.9543851184
0.7609989150
0.6284873968
0.7563975442
0.6763536244
0.7948396387
0.6990589645
0.9513779388
0.9505321884
0.8817440355
0.8242481744
1.0179470837
0.7378644692
0.8397716974
0.6867737987
0.7329399433
0.6537376776
0.9786717958
0.7687603559
0.7888346312
0.7786955610
0.9182057479
0.8851002785
0.7804281680
0.6626414921
1.0243357896
0.9374725680
0.7355329147
0.7878987077
0.6184188560
0.6260598546
0.6644018703
1.0026699347
0.7886312350
0.7883960390
0.7183020453
1.0188028583
0.7722424242
0.7893396725
0.8940723511
0.7047077696
0.7554736023
0.9249183379
0.9232157234
0.7556961780
0.7737539791