<VTKFile type="UnstructuredGrid" version="0.1">
	<UnstructuredGrid>
		<Piece NumberOfPoints="1862" NumberOfCells="3498">
			<CellData>
				<DataArray type="Int32" Name="type" NumberOfComponents="1" Format="ascii">
0
0
0
0
0
0
0
0
0
0
0
0
0
0
0
0
1
0
0
1
0
0
0
0
0
0
0
0
0
0
0
0
0
1
0
0
0
0
0
0
0
0
0
0
0
0
0
0
0
0
1
0
0
0
0
0
0
0
0
0
0
1
0
0
0
0
0
0
0
0
0
0
0
0
0
0
0
0
0
0
0
0
0
0
0
0
0
0
0
0
0
0
0
0
0
0
0
0
0
0
0
0
0
0
0
0
0
0
0
0
0
0
0
0
0
0
0
0
0
0
0
0
0
1
0
0
0
0
0
0
0
0
0
0
0
0
0
0
0
0
0
0
0
0
0
0
0
0
0
0
0
1
0
1
1
0
0
0
0
0
0
0
0
0
0
0
0
0
1
0
1
0
0
0
0
1
0
0
0
0
0
0
0
0
1
1
0
0
0
0
0
1
0
0
0
0
0
0
0
0
1
0
0
0
0
0
0
0
0
0
0
0
0
0
0
0
0
0
0
0
0
0
0
0
0
0
0
0
0
0
0
0
0
1
0
0
0
0
0
0
0
0
0
0
0
0
0
0
0
0
0
0
0
0
0
0
0
0
0
0
0
0
0
0
0
0
0
0
0
0
0
0
0
0
0
0
0
0
0
0
0
1
0
0
0
0
0
0
0
0
0
0
0
0
0
0
0
0
0
0
0
0
0
0
0
0
0
0
0
0
0
0
0
0
0
0
0
0
0
0
0
0
0
0
0
0
0
0
0
0
0
0
1
0
0
0
0
0
0
0
0
0
0
0
0
0
0
0
0
0
0
0
0
0
0
0
0
0
0
0
0
0
0
0
0
0
0
0
0
0
0
0
0
0
0
0
0
0
0
0
0
0
0
0
0
0
0
0
0
0
1
0
0
0
0
0
0
0
0
0
0
0
0
0
0
0
0
0
0
0
0
0
0
0
0
0
0
0
0
0
0
0
0
0
0
0
0
0
0
0
0
0
0
0
0
0
0
0
0
0
0
0
0
0
0
0
0
0
0
0
0
0
0
0
0
0
0
0
0
0
0
0
0
0
0
0
0
0
0
0
0
0
0
0
0
0
0
0
0
0
0
0
0
0
0
0
0
0
0
0
0
0
0
0
0
0
0
0
0
0
0
0
0
0
0
0
0
0
0
0
0
0
0
0
0
0
0
0
0
0
0
0
0
1
0
0
0
0
0
0
0
0
0
0
0
0
0
0
0
0
0
0
0
1
0
0
0
0
0
0
0
0
0
0
0
0
0
0
0
0
0
0
0
0
0
0
0
0
0
0
0
0
0
0
0
0
0
0
0
0
0
0
0
0
0
0
0
0
0
0
0
0
0
0
0
0
0
1
0
0
0
0
0
0
0
0
0
0
0
0
0
0
0
0
0
0
0
0
0
0
0
1
0
0
0
0
0
0
0
0
0
0
0
0
0
0
0
0
0
0
0
1
0
0
0
1
0
0
0
0
0
0
0
0
0
0
0
0
0
0
0
0
0
0
0
0
0
0
0
0
0
1
0
0
0
0
0
0
0
1
0
0
0
0
0
0
0
0
0
0
0
0
0
0
0
0
0
0
0
0
0
0
0
0
0
0
1
0
0
0
0
0
0
0
1
0
0
0
0
0
0
1
0
0
0
0
0
0
0
0
0
0
0
0
0
0
0
0
0
0
0
0
0
0
0
0
0
0
0
0
0
0
0
0
0
0
0
0
0
0
1
0
0
0
0
0
1
0
0
0
0
0
0
0
1
0
0
0
0
0
0
0
0
0
0
0
0
0
1
0
0
0
0
0
0
0
0
0
0
0
0
0
0
0
0
0
0
0
0
0
0
0
0
0
0
0
0
0
0
0
0
0
0
0
0
0
0
0
0
0
0
0
0
0
0
0
0
0
0
0
0
0
1
0
0
0
0
0
0
0
0
0
0
0
0
0
0
0
0
0
0
0
1
0
0
0
0
0
0
0
0
0
1
0
0
0
0
0
0
0
0
0
0
0
0
0
0
0
0
0
0
0
0
0
0
0
0
0
0
0
0
0
1
0
1
0
0
0
0
0
0
0
0
0
0
0
0
0
0
0
0
0
0
0
0
0
0
0
0
0
0
0
1
0
0
0
1
0
0
0
0
0
0
0
0
0
0
0
0
0
0
0
0
0
0
0
0
0
0
0
0
0
0
0
0
1
0
0
0
0
0
0
0
0
0
0
0
0
0
0
0
0
0
0
0
0
0
0
0
0
0
1
0
0
0
0
0
0
0
0
0
0
0
0
0
0
0
0
0
0
0
0
0
0
0
1
0
0
0
0
0
0
1
0
0
0
0
0
0
0
0
0
0
0
1
0
0
0
0
0
0
0
0
0
0
0
0
0
0
0
0
0
0
0
0
1
0
0
0
0
0
0
0
0
0
0
0
1
0
0
0
0
0
0
0
0
0
0
0
0
0
0
0
0
0
0
0
0
0
1
0
0
0
0
0
0
0
0
0
1
1
0
1
0
1
0
0
0
0
0
0
0
0
0
0
0
1
0
0
0
0
0
1
1
0
0
0
0
0
0
1
0
0
0
0
0
1
1
1
0
0
0
0
0
0
0
0
0
0
0
0
1
1
0
0
1
0
0
0
0
0
1
0
0
0
1
0
1
0
0
0
0
0
0
0
1
0
0
0
0
0
0
0
1
0
0
1
0
0
0
0
0
0
0
0
0
0
0
0
0
0
0
1
0
0
0
0
0
0
0
0
0
0
0
0
0
0
0
0
0
0
0
0
0
0
0
0
0
0
0
0
0
0
0
0
0
0
0
0
1
0
0
0
0
0
0
1
0
0
0
1
0
0
0
0
0
0
0
0
0
0
0
1
0
0
0
0
0
0
0
0
0
0
0
0
0
0
0
0
0
0
0
0
0
0
0
0
0
0
0
0
0
0
0
0
0
0
0
0
0
0
0
0
1
1
0
0
0
0
0
0
0
0
0
0
0
0
0
1
0
0
0
0
0
0
0
0
0
0
0
0
0
0
0
0
0
0
0
0
0
0
0
0
0
0
0
0
0
0
0
0
0
0
0
0
0
0
0
0
0
0
0
0
0
0
0
0
0
0
0
0
0
0
0
0
0
0
0
0
0
0
0
0
0
0
0
0
0
0
0
0
1
1
0
0
0
0
0
0
0
0
1
0
0
0
0
0
0
0
0
0
0
0
0
0
0
0
0
0
0
0
0
0
0
0
1
0
0
0
0
0
0
0
0
0
0
0
0
0
0
0
0
1
0
0
0
0
0
0
0
0
0
0
0
0
0
0
0
0
0
0
0
0
0
0
0
0
0
0
0
0
0
0
0
0
0
0
0
0
0
0
0
0
0
0
0
0
0
0
0
0
0
0
0
0
0
0
0
0
0
0
0
0
0
0
0
0
0
0
0
0
0
0
0
0
0
0
0
0
0
0
0
0
0
0
0
0
0
0
0
0
0
0
1
1
0
0
0
0
0
1
0
0
0
0
0
0
0
0
0
0
0
0
1
0
0
0
0
0
0
0
0
0
0
0
0
0
0
0
0
0
0
0
0
0
0
0
0
0
0
0
0
0
0
0
0
0
0
0
0
0
0
0
0
0
0
0
0
0
0
0
0
0
0
0
0
0
1
0
1
0
0
0
0
0
0
0
0
0
0
0
0
0
0
0
0
0
0
1
0
0
0
0
0
0
0
0
0
0
0
0
0
0
0
0
0
0
0
0
0
0
0
0
0
0
0
0
0
0
0
0
0
0
0
0
0
0
0
0
0
0
0
0
0
0
0
0
0
0
0
0
0
0
0
0
0
0
0
0
0
0
0
0
0
0
0
0
0
0
1
0
0
0
0
0
0
0
0
0
0
1
0
0
0
0
0
0
0
0
0
0
0
0
0
0
0
0
0
0
0
0
0
0
0
0
0
0
0
0
0
0
0
0
0
0
0
0
0
1
0
0
0
0
0
0
0
0
0
0
0
0
0
0
0
0
0
0
0
0
0
0
0
0
0
0
0
0
0
0
0
0
0
0
0
0
0
0
0
0
0
0
0
0
0
0
0
0
0
0
0
0
0
0
0
0
0
0
0
0
0
0
0
0
0
0
0
0
0
0
0
0
0
0
0
0
0
0
0
0
0
1
0
0
0
0
0
0
0
0
0
0
0
0
0
0
0
0
0
0
0
0
0
0
0
0
0
0
0
0
0
0
0
0
0
0
0
0
0
0
0
0
0
0
0
0
0
0
0
0
0
0
0
0
0
0
0
0
0
0
0
0
0
0
0
0
0
0
0
0
0
0
0
0
0
0
0
0
0
0
0
0
0
0
0
0
0
0
0
0
0
0
0
0
0
0
0
0
0
0
0
0
0
0
0
0
0
0
0
0
0
0
0
0
0
0
0
0
0
0
0
0
0
0
0
1
0
0
0
0
0
0
0
0
0
0
0
0
0
0
0
0
0
0
0
0
0
0
0
0
0
0
0
0
0
0
0
0
0
0
0
0
0
0
0
0
0
0
0
0
0
0
0
0
0
0
0
0
0
0
0
0
0
0
0
0
0
0
0
0
0
0
0
0
0
0
0
0
0
0
0
0
0
0
0
0
0
1
0
0
0
0
0
0
0
1
0
0
0
0
0
0
0
0
0
0
0
0
0
0
0
0
0
0
0
0
0
0
0
0
0
0
0
0
0
0
0
0
0
0
0
0
0
1
0
0
0
0
0
0
0
0
0
0
0
0
0
0
0
0
0
0
0
0
0
1
0
0
0
0
0
0
0
0
0
0
0
0
1
1
0
0
0
0
0
0
0
0
0
0
0
0
0
0
0
1
1
0
1
0
0
0
0
0
0
0
0
0
1
0
0
0
0
0
0
1
0
0
0
0
0
0
0
0
0
0
1
0
0
0
0
1
0
1
0
0
0
0
0
0
0
1
0
0
0
1
0
0
0
1
0
1
1
0
0
1
1
0
0
0
1
0
0
0
1
0
0
0
0
0
0
0
0
0
1
0
0
0
0
0
0
1
0
0
0
0
0
0
0
0
0
0
0
0
0
0
0
0
0
0
0
0
0
0
0
0
0
0
0
1
0
0
1
0
0
0
0
0
0
0
0
0
0
0
0
0
0
0
0
0
0
1
0
0
1
0
0
0
0
0
0
0
0
0
0
0
1
0
0
1
0
0
0
0
0
0
0
0
0
0
0
1
1
0
0
0
0
0
0
0
0
0
0
0
0
1
0
0
0
0
0
0
0
0
0
0
0
0
0
0
0
0
0
1
0
0
0
0
0
0
0
0
0
0
0
0
0
0
0
0
0
1
0
0
0
0
0
0
0
0
0
0
0
0
0
0
0
0
0
0
0
0
0
0
0
0
0
0
0
0
0
0
0
0
0
0
0
0
0
0
0
0
1
0
0
0
0
0
0
0
0
0
0
0
0
0
0
0
0
0
0
0
0
0
0
0
0
0
0
0
0
0
0
0
0
0
0
0
0
0
0
0
0
0
0
0
0
0
1
0
0
0
0
0
0
0
0
0
0
0
0
0
0
0
0
0
0
0
0
0
0
0
0
0
0
0
0
0
0
0
0
0
0
0
0
0
0
0
0
0
0
0
0
0
0
0
1
0
0
0
0
0
0
0
0
0
0
1
0
0
0
0
0
0
0
0
0
0
0
0
0
0
0
1
0
0
1
0
0
0
0
0
0
0
0
0
0
0
0
0
0
0
0
0
0
0
0
0
0
0
1
0
0
0
0
0
0
0
0
0
0
0
0
0
0
0
0
0
0
0
0
0
0
0
0
0
0
0
0
0
0
0
0
0
0
0
1
0
0
0
0
0
0
0
0
0
0
0
0
0
0
0
0
0
0
0
0
0
0
0
0
0
0
0
0
0
0
0
0
0
0
0
0
0
0
0
0
0
0
0
0
0
0
0
0
0
0
0
0
0
0
0
0
0
0
0
0
0
0
0
0
0
0
0
0
0
0
0
0
0
0
0
0
1
0
0
0
0
0
0
0
0
0
0
0
0
0
0
0
0
0
0
0
0
0
0
0
0
0
0
0
0
0
0
0
0
0
0
0
0
0
0
0
1
0
0
0
0
0
0
0
0
0
0
0
0
1
1
0
0
0
0
0
0
0
0
0
0
0
0
0
0
0
0
0
0
0
0
0
0
0
0
0
0
0
0
0
0
0
0
0
0
0
0
0
0
0
0
0
0
0
0
0
0
0
0
0
0
0
0
0
0
0
0
0
0
0
0
0
0
0
0
0
0
0
0
0
0
0
0
0
0
0
0
0
0
0
0
0
0
0
0
0
0
0
0
0
0
0
0
0
0
0
0
0
0
0
0
0
1
0
1
0
0
0
0
0
0
0
1
1
1
1
0
0
0
0
0
0
0
0
0
0
0
0
0
0
0
0
0
0
0
0
0
0
0
0
0
0
0
0
1
1
0
0
0
0
0
0
0
0
0
0
0
0
0
0
0
0
0
0
1
0
0
0
0
0
0
0
1
1
0
1
1
0
0
1
0
0
0
0
0
0
0
1
0
1
0
0
0
0
0
0
0
0
0
0
0
0
0
0
0
0
0
0
0
0
0
0
0
0
0
0
0
1
1
0
0
0
1
1
0
0
0
0
1
0
0
1
0
1
0
0
0
0
0
1
0
0
0
1
0
0
0
0
0
0
0
0
0
0
0
0
0
0
0
0
0
0
0
0
0
0
0
0
0
0
0
1
0
0
0
0
0
0
1
0
0
0
0
0
0
0
0
0
0
0
0
0
0
0
0
0
0
0
0
0
0
0
0
0
0
0
0
0
1
0
1
0
0
0
0
0
0
0
1
0
0
0
0
0
0
0
0
0
0
0
1
0
0
0
0
0
0
0
0
0
1
0
0
0
0
0
0
0
1
0
0
0
0
0
0
0
1
0
0
0
0
0
0
0
0
0
0
0
0
0
0
0
0
0
0
0
1
0
1
0
0
0
0
0
1
0
0
0
0
0
0
0
0
0
0
0
0
0
0
0
0
0
0
0
0
0
0
0
0
0
1
0
1
0
0
0
0
0
0
0
0
0
1
0
0
0
0
0
1
0
0
0
0
0
0
0
0
0
0
0
0
0
0
0
1
0
0
0
0
0
0
0
0
1
0
0
0
0
0
0
0
0
0
0
0
0
0
0
0
0
0
0
0
0
0
0
0
0
0
0
0
0
0
0
1
0
0
0
0
0
0
0
0
0
0
0
0
0
0
0
0
1
0
0
0
0
0
0
0
0
1
0
0
0
0
0
0
0
0
0
1
0
0
0
0
0
1
0
0
0
0
0
0
0
0
0
0
0
0
0
0
0
0
0
0
0
1
0
0
0
0
0
0
1
0
0
0
0
0
0
0
0
1
0
0
0
0
0
0
0
0
0
0
0
0
0
0
1
0
0
1
0
0
0
1
0
0
0
0
0
0
0
0
0
0
0
0
0
0
0
0
1
0
0
0
0
0
0
0
0
0
0
1
0
1
0
0
0
0
0
0
1
0
0
0
0
0
0
0
0
0
0
0
0
0
0
0
0
0
0
0
0
0
0
0
0
0
0
0
1
1
0
0
0
0
0
0
1
0
0
0
0
0
0
0
0
0
0
0
0
0
1
0
0
0
0
0
0
0
1
0
0
0
0
0
0
0
0
0
0
0
0
0
0
0
0
0
0
0
0
0
0
0
0
0
0
0
1
0
0
0
0
0
0
0
0
0
0
1
0
0
1
0
0
0
0
0
0
0
0
0
0
0
0
0
0
0
0
0
0
0
0
0
0
0
0
0
0
0
0
0
1
0
0
0
0
0
0
0
1
0
0
0
0
0
0
0
1
0
0
0
0
1
0
0
0
0
0
0
0
0
0
0
0
1
0
1
0
0
0
1
0
				</DataArray>
				<DataArray type="Float64" Name="h" NumberOfComponents="1" Format="ascii">
0.8949187817
0.8949843508
0.8825223027
0.8919603976
0.8821683171
0.8844340059
0.8876576063
0.8980603617
0.8916388353
0.9046411026
0.8957924174
0.8845442482
0.8941418493
0.8994252505
0.8962008442
0.8918067927
0.8871807654
0.9012600226
0.8915135420
0.8956213279
0.8754267809
0.8886956375
0.8841408662
0.8779882686
0.8913339803
0.8959193853
0.8744594179
0.8579813826
0.8817084690
0.9032616608
0.8995040640
0.8864395432
0.8841393422
0.8793994800
0.8705203761
0.8768417931
0.8705133006
0.8756504612
0.8501619007
0.8761739157
0.8816191109
0.8657565780
0.8802019267
0.8757050445
0.8757455377
0.8653044934
0.8801881144
0.8707411450
0.8895920013
0.8713437996
0.8727871630
0.8734003103
0.8778447419
0.8607175648
0.8705641447
0.8670632615
0.8686414985
0.8733945107
0.8753895043
0.8676772870
0.8855415426
0.8820747841
0.8918973833
0.8739785458
0.8688511555
0.8476532464
0.8522108836
0.8743566308
0.8805929878
0.8772707200
0.8745041856
0.8713431384
0.8623735704
0.8654718227
0.8721970204
0.8124556456
0.8735127233
0.8824480977
0.8711566956
0.8331067771
0.8958174618
0.8470534417
0.9239971379
0.8559990095
0.8302313216
0.8189917865
0.9010732579
0.8358774368
0.8814880266
0.9106729620
0.9021654672
0.8222745664
0.8886936418
0.8935969728
0.8281427802
0.8293060163
0.8176088862
0.8365372292
0.8417717015
0.9004258307
0.9154334863
0.8986662804
0.8399063181
0.8710937170
0.9078066742
0.8337095561
0.8033365696
0.9006292932
0.8823716109
0.8375843262
0.8809534412
0.8997537115
0.8926640736
0.8983864628
0.8537115279
0.9278426589
0.8483630469
0.9089740221
0.9120982579
0.8687479848
0.9101827368
0.8289594687
0.7938076239
0.9194804771
0.8886339977
0.9061398270
0.8610666960
0.9189897789
0.9252394513
0.9261068258
0.9161169502
0.8160796673
0.8748137614
0.9335986212
0.9099608247
0.9128910151
0.8964184111
0.9346648267
0.9135563074
0.8816292685
0.9177569567
0.9148162472
0.9206463742
0.8723201213
0.8056144767
0.9122897819
0.8884003248
0.9465061474
0.9158601619
0.9630234558
0.8983010538
0.9385059938
0.9395022983
0.9700256708
0.9055108725
0.9356931837
0.9500172385
0.9115586297
0.9585844716
0.9247311669
0.8759195585
0.9457142905
0.8907535220
0.9184896273
0.9150035938
0.9334326219
0.8601869816
0.8852339923
0.9256521184
0.9388847256
0.9465983682
0.9285386438
0.9617774317
0.9105207983
0.8504381244
0.9806762155
0.8646184951
0.9482830333
0.9720605244
0.9168267948
0.9322385670
0.8331858663
0.9226204475
0.7786507976
0.9294370688
0.9350924239
0.8453075122
0.9719494328
0.9271116629
0.9359437686
0.8136741222
0.9669548477
0.9289281359
0.8275294099
0.9802376111
0.9420798809
0.9096865110
0.7928669803
0.8078132146
0.9812532013
0.9363051790
0.7764602965
0.9352959139
0.9770829432
0.7714391750
0.9142188872
0.8801660224
0.8954080432
0.7868409093
0.8584287261
0.8054675612
0.9305770120
0.9121670898
0.9164103965
0.8880857302
0.7834999376
0.8704757360
0.9085155708
0.8256971102
0.9215358111
0.7669889768
0.8944763876
0.8434984927
0.8481521654
0.7621344911
0.9682716084
0.9268276764
0.8007026401
0.7515566772
0.9121770109
0.9745898884
0.8726789215
0.7799845563
0.9787567746
0.9517206571
0.8232376781
0.7907491341
0.8693948470
0.9239118155
0.8431519025
0.7838386309
0.8869273975
0.9066136877
0.8488196982
0.8903302207
0.8742209660
0.9104492231
0.8123334126
0.8789547883
0.9007205280
0.8575925264
0.8058095133
0.9044360506
0.7682907979
0.7610503410
0.9087796296
0.8628054260
0.8830820899
0.9164382217
0.8636076349
0.8258608470
0.7374108234
0.7780612446
0.8354936505
0.7638335094
0.9430288402
0.9591892090
0.7412597965
0.9737893849
0.8905576416
0.9246294572
0.8319000423
0.9075112602
0.8090712437
0.8367211279
0.7283717835
0.7538985455
0.8056878186
0.8648801629
0.7497156326
0.9220097725
0.9694914592
0.9580511891
0.9453907109
0.9105336414
0.8878535383
0.7846329443
0.8574600783
0.9025129938
0.8984477467
0.8618385515
0.7693467927
0.8775885663
0.8815160778
0.8276864275
0.7653217391
0.8321647105
0.8685135781
0.8922086416
0.9088021292
0.9002557533
0.8726931889
0.7920236502
0.7431293807
0.7467453061
0.8439530599
0.7877162922
0.8483843517
0.8960780624
0.7165475075
0.7885750243
0.7547524568
0.9624858549
0.7206790459
0.9228264547
0.8533937720
0.8088081291
0.9053050828
0.9464479896
0.8132359373
0.8203571458
0.7394871797
0.8850894211
0.9376355455
0.7310230243
0.7610960601
0.7862968124
0.9484095169
0.8211998639
0.8823386248
0.9210981060
0.9373654552
0.9557639167
0.7108949356
0.8548913535
0.7259327094
0.9080591570
0.8487875183
0.8974549096
0.8135252462
0.7515784842
0.8162273500
0.8937442935
0.7513761718
0.8674295736
0.8452170691
0.8712813845
0.8895170275
0.8793640483
0.7037747248
0.7313378051
0.7795526304
0.8611355522
0.8869483648
0.8812614759
0.8306067780
0.7181804593
0.7731229522
0.8338154046
0.8117435872
0.8390148413
0.8744383578
0.9002722078
0.7743020227
0.7302802231
0.8573958584
0.7066357807
0.7101481571
0.7256016651
0.8906714542
0.7512827640
0.8474307849
0.8828995382
0.9308701712
0.8394802654
0.8003497879
0.9314432012
0.8488220079
0.9160037986
0.7027240308
0.7076529244
0.9001679050
0.9467563980
0.7941545177
0.8728225656
0.7962205924
0.7187791449
0.7681214183
0.7340797525
0.7938369799
0.9396764680
0.7015904063
0.8024636889
0.7246925546
0.9268516063
0.8384701795
0.8360986596
0.8258793212
0.8170606910
0.7498468860
0.7131702484
0.9180979986
0.7654506873
0.8732634727
0.7359425805
0.9357555977
0.8993153216
0.7086941537
0.7387840259
0.7803596294
0.7643011215
0.7035391962
0.8320762850
0.7137129380
0.8360503325
0.8878787747
0.8869440994
0.8017159413
0.8102547820
0.7000257956
0.7126925193
0.7128061886
0.8602832222
0.8618798465
0.8780753675
0.7611491775
0.9051806082
0.8840957584
0.8269301558
0.7397109912
0.7102780190
0.8784066488
0.7766436642
0.8636071712
0.7308096773
0.7498382835
0.8656192898
0.8630079270
0.9054618462
0.7183281933
0.7269557844
0.7769589599
0.8493003554
0.8282713248
0.7337359135
0.8204130274
0.7104468890
0.7454099749
0.7962846684
0.8324332897
0.7863932828
0.9059319747
0.8906809630
0.6985805666
0.7605455437
0.7128136672
0.8765987535
0.8625605533
0.7419479371
0.8803968668
0.8771920529
0.7219696543
0.8244587511
0.9267751184
0.7815907230
0.8199877651
0.7312119438
0.7048431546
0.7357632182
0.8494105929
0.9209514390
0.7909485673
0.8866653888
0.7523939501
0.7020113037
0.7473595652
0.9010977213
0.7827080678
0.8736495949
0.8422694851
0.8384153044
0.7189433585
0.8382300230
0.9210419207
0.9158569345
0.8990040775
0.9076385675
0.8328305869
0.7816453659
0.8221858088
0.7519298680
0.6994440418
0.9160051876
0.8666993596
0.8360965414
0.8062265502
0.8087065996
0.9291440076
0.8558239943
0.8319492445
0.8405139887
0.8730744894
0.7971209133
0.8170629529
0.7498577347
0.7718704252
0.7203379747
0.8801532541
0.7081942509
0.7678589876
0.8328301850
0.7347840755
0.7922976423
0.7909597203
0.7225002530
0.8736513513
0.8026657915
0.7233053387
0.8693869616
0.7931794052
0.7348100324
0.7309435757
0.7405893529
0.8834833449
0.8239451143
0.8496939363
0.8248516461
0.7558903468
0.7173585471
0.7385385394
0.8107211431
0.8244655764
0.7625487977
0.8465334979
0.8494110000
0.7492317701
0.8667026540
0.8087164137
0.8801566328
0.7173637193
0.7189646838
0.7634557627
0.8122651694
0.8761538174
0.7902952961
0.8095132668
0.8282150568
0.7524139027
0.7775758124
0.8189614468
0.8818093389
0.8022130607
0.8362974416
0.7257988393
0.8625286754
0.7229829600
0.7223830670
0.8241228191
0.8494382926
0.8721588030
0.7567783876
0.8267092200
0.8625651538
0.8382328253
0.7359751268
0.8630705041
0.7718865401
0.7312094723
0.7799552417
0.9059573394
0.7754082225
0.7585550240
0.8509720068
0.7694087412
0.7000120965
0.8588855437
0.7027967853
0.7396419883
0.7923029449
0.7540252271
0.8031054596
0.7963891008
0.8405209950
0.8180645305
0.7584337173
0.8376183909
0.9054462503
0.8321489723
0.7104276032
0.8119999420
0.9052057746
0.7466152123
0.8086189950
0.7353791265
0.8059060617
0.6985782957
0.7370894931
0.8651348697
0.9161071223
0.7673954816
0.7234859112
0.7712438282
0.9026549758
0.8165256325
0.7611950280
0.8015792910
0.7713935292
0.9099314061
0.8869549881
0.8081622820
0.7825927514
0.8456220240
0.8950629635
0.8145194780
0.7396445997
0.8280384850
0.7857385130
0.8465354632
0.7754194178
0.7385575063
0.8239498173
0.8777003276
0.7319895901
0.8524708181
0.8693866918
0.7879257367
0.8070551642
0.9603344802
0.8625309078
0.7963987701
0.7713954463
0.8048317756
0.7917102724
0.7223965598
0.7931878130
0.7567941073
0.8363002799
0.9098817295
0.9715040933
0.8531848546
0.7712209295
0.8761564076
0.7795737328
0.7595822056
0.7496373658
0.9086313399
0.8729700777
0.7258025545
0.7928830480
0.9178906789
0.8041081089
0.7958602286
0.8521331367
0.8315552137
0.8059361578
0.7655495901
0.7345730429
0.8095201846
0.8685064390
0.8095985183
0.8573869860
0.8397474458
0.8131644166
0.9401629384
0.9742210661
0.8247129420
0.8064890727
0.7806289350
0.8465444159
0.8215276623
0.9547411772
0.9622400436
0.7492368063
0.7860506936
0.7612220295
0.8011074178
0.9183697585
0.8000594249
0.7959983678
1.0126952734
1.0053147174
0.7800865481
0.7900469800
0.9495114880
0.7954682945
0.7951460857
0.8009348367
0.9869389097
1.0062707231
1.0060558269
0.8059066273
0.8132489206
0.8036371182
0.8083836405
0.8048200429
0.9778877749
1.0064721759
0.8929993730
0.9402386974
0.8076987998
1.0249276311
1.0338112863
0.8104173158
0.9714998582
0.9413553532
0.8081633650
1.0370903152
0.8022177920
0.9976651765
0.8225513286
0.8186975950
1.0358271271
0.8145207419
1.0255124960
0.9895025749
0.8267091658
0.9704195389
0.8216114131
0.8122155177
0.9574185276
0.9443203528
0.8342211578
0.8895317424
0.8888628507
0.8889273387
0.8895966426
0.8890133866
0.8845072390
0.8957454731
0.8959536422
0.8843998887
0.8843927170
0.8822130845
0.8844481778
0.8916900328
0.8961513793
0.8876048360
0.9026273620
0.8960053023
0.8890586307
0.8989668618
0.9012232525
0.8920056617
0.8825619479
0.8914504040
0.9032209308
0.8958805286
0.8829569830
0.8981101708
0.8959013009
0.8912930233
0.9046819728
0.8934323930
0.8941966796
0.8789826166
0.8870946155
0.8887825178
0.9026683675
0.8994635934
0.8990178782
0.8793734562
0.8840878666
0.8863537362
0.8782038054
0.8761384941
0.8500039432
0.8872123723
0.8918391098
0.8801538461
0.8500830619
0.8829896074
0.8959156444
0.8815599466
0.8994684819
0.8956582061
0.8790164774
0.8842178435
0.8697517441
0.8887425591
0.8735062462
0.8934824574
0.8754546609
0.8888563658
0.8852664883
0.8557285005
0.8707131737
0.8871324972
0.8757053579
0.8727611648
0.8801135687
0.8580353223
0.8780277136
0.8817671841
0.8685783616
0.8546717275
0.8745225137
0.8705723057
0.9017394144
0.8500964424
0.8678243562
0.8684040994
0.8782600668
0.8777721273
0.8697775994
0.8827783170
0.8815538541
0.8853239074
0.8735374335
0.8724467523
0.8557458238
0.8768859815
0.8687769305
0.8757131800
0.8696670158
0.8705500564
0.8918913278
0.8743399961
0.8604278401
0.8705406907
0.8739338275
0.8678407225
0.8717190970
0.8707583653
0.8757610574
0.8654714076
0.8649394229
0.8713136061
0.8622829860
0.8770625463
0.8474229374
0.8627519804
0.8706020225
0.8867793325
0.8684331705
0.8657813606
0.8734874224
0.8744854205
0.8697153305
0.8721819447
0.8547694370
0.8691250901
0.8805730827
0.8694518503
0.9017767153
0.8772459138
0.8724801183
0.8696935208
0.8397549897
0.8604403286
0.8649253399
0.8685309969
0.8630807424
0.8895891251
0.8734475583
0.8815779457
0.8653666581
0.8470617694
0.8559879681
0.8596595163
0.8827962169
0.8713638240
0.8855542448
0.8820928211
0.8691921774
0.8900878670
0.8697166590
0.8754113156
0.8702049376
0.8649432445
0.8171060183
0.8529479428
0.8717446663
0.8694800623
0.8667862993
0.8705931213
0.8805173950
0.8770836555
0.8867968231
0.8671386930
0.8533622620
0.8736687636
0.8475384463
0.8607028926
0.8707794253
0.8676875569
0.8221661135
0.8734196645
0.8628354791
0.8886852099
0.8649115781
0.8710654457
0.8417025728
0.8596538678
0.8352944657
0.8685495479
0.8986627803
0.8430456372
0.8941113484
0.8481753800
0.8476738254
0.9154890876
0.8522348973
0.8692638136
0.8364247364
0.8926505074
0.8292560738
0.8631709409
0.8631387845
0.9004298087
0.8336589661
0.8398101909
0.9297221725
0.8533494662
0.8823563800
0.8997559469
0.8900985878
0.8736827268
0.8926536411
0.8667980852
0.8125940868
0.8729860554
0.8702248755
0.8824618763
0.8530497297
0.9022805465
0.8172322974
0.8808955798
0.8375956936
0.8805368362
0.8941219965
0.9296327561
0.8553771648
0.8926575524
0.8190936660
0.8289683614
0.8770870139
0.8692919206
0.9062147940
0.8631733503
0.8481513092
0.8303619186
0.8332205868
0.9010670690
0.9239092205
0.8958149816
0.8484053856
0.8711820050
0.8431294204
0.9101512259
0.8359110696
0.8354143840
0.9022709962
0.8160342472
0.8600030829
0.9022153442
0.9061757089
0.8893038634
0.9010180171
0.8814939119
0.8281801476
0.8936355618
0.9206587880
0.9106344847
0.9021606016
0.9072642605
0.8740331896
0.8886141185
0.8610781105
0.8731118477
0.9261613964
0.8398879667
0.9217138305
0.8505627569
0.8553464366
0.9062399587
0.8770924059
0.8967600069
0.9099273793
0.9129170798
0.8748132769
0.9078364180
0.8176715402
0.8055118387
0.8393038749
0.9147848794
0.8838837968
0.9022376781
0.9206070530
0.8983848900
0.9006003388
0.8968974512
0.8740574864
0.9010148412
0.8536822069
0.9158283599
0.8601072171
0.9206900860
0.9212330258
0.9277881999
0.8893153623
0.9123166737
0.9072398900
0.8034339015
0.9138941799
0.7979066342
0.8281629053
0.9419757750
0.9216572794
0.8967620262
0.9032808331
0.9299456379
0.9156546025
0.9094608168
0.8687387570
0.8507545334
0.9385537176
0.9090061689
0.9155825070
0.9120704938
0.9069509644
0.8982872174
0.9395594213
0.9055198005
0.8969197001
0.9212634511
0.8852201131
0.9149726579
0.8839085460
0.9514531730
0.9139255552
0.9201173072
0.9537816781
0.8214247305
0.8394372153
0.9195110231
0.9251985851
0.8758827553
0.9135919758
0.7939328684
0.9160858183
0.9072113822
0.8907441571
0.9201567274
0.9457844205
0.9190209192
0.9586482736
0.9094404789
0.8964382092
0.9335545091
0.9433433071
0.8098139942
0.9155930692
0.9321220305
0.9346098175
0.9618304494
0.9041070295
0.9063250971
0.9135398151
0.9069862691
0.8283767359
0.9032977461
0.9419208454
0.7980301274
0.9155543855
0.9389518637
0.9241048099
0.9298988430
0.9466513640
0.9104963485
0.9629563919
0.9225882700
0.8066516427
0.9136243484
0.9201485565
0.9273050332
0.9498400914
0.9641045197
0.8723716196
0.9464322473
0.8884142848
0.9167966993
0.9537078432
0.9072456266
0.8215524020
0.9189502699
0.9177888296
0.9323064922
0.9201224306
0.8645632608
0.9186187091
0.8816595889
0.9513860680
0.9227071716
0.9270798235
0.9356235858
0.9499629363
0.9063426666
0.7903605664
0.9432833836
0.9123381145
0.9041409716
0.8099551372
0.9294017089
0.9320581553
0.9699833521
0.9115834410
0.9240733565
0.8452087158
0.7897818969
0.9802882693
0.8602619908
0.9227399448
0.9272294065
0.9421684761
0.9189800899
0.9640482090
0.9185962755
0.9388829975
0.9282214054
0.9497768484
0.8067548576
0.9224126826
0.9669911296
0.9289417217
0.9185205116
0.9333565390
0.8274152417
0.9574462830
0.9247639492
0.7763329170
0.9838324458
0.9285726336
0.9352572168
0.8505179072
0.9771470829
0.7904890450
0.9256830417
0.9362643300
0.9123694037
0.8076908277
0.9844658260
0.9720161746
0.9133639938
0.9282557508
0.9224448755
0.9305403122
0.9573665611
0.9388047721
0.9158142027
0.9350101919
0.8332874803
0.9289073801
0.9806332753
0.7899029997
0.9312305225
0.9336136400
0.9481894478
0.9121421135
0.7867279271
0.8137854299
0.9746583610
0.9837700448
0.9359841183
0.9843986107
0.9711033037
0.9836992418
0.7787707525
0.9351300276
0.9718903535
0.7668989376
0.9104260014
0.8742116141
0.9057787107
0.8903307775
0.7929739916
0.9336528215
0.7613800493
0.9248153953
0.8487728201
0.9022997501
0.9133898246
0.7906648464
0.9289643799
0.9278661992
0.9349157511
0.9097100632
0.9201474130
0.8830830470
0.8976023688
0.7682233031
0.8627805359
0.9044177233
0.8122449164
0.9312685890
0.9238786525
0.9158424060
0.9658443464
0.7463345786
0.7715232186
0.9710311458
0.8876985132
0.8318261446
0.9836357879
0.8364077855
0.7496221493
0.9581527716
0.9220584746
0.9385066119
0.7844104744
0.7412104545
0.9074761472
0.9811866710
0.8633368283
0.7636954241
0.9738608587
0.9326434143
0.9431277239
0.8087828161
0.8055670664
0.8618371995
0.8941316888
0.9215670689
0.8321222572
0.7692996505
0.9023144991
0.7614502769
0.9057975596
0.9178914811
0.7391731710
0.8815224888
0.9024953957
0.9248486348
0.8584684906
0.8954153718
0.8801733114
0.9142448471
0.8257862995
0.8726991306
0.8960675974
0.9279019217
0.8483664981
0.7919610801
0.9085379913
0.7835944453
0.7467088839
0.8890943639
0.9130728535
0.8704999411
0.8976115559
0.8880888897
0.9201775656
0.8728547321
0.8131756266
0.7262970790
0.7259044653
0.7609011846
0.8208197392
0.7801641750
0.9325614897
0.9516256521
0.9485039797
0.7516420795
0.9786980900
0.9354335462
0.8820835751
0.9211120412
0.8435642945
0.9657559881
0.9121749222
0.8234831675
0.8483835153
0.7206742198
0.7394058738
0.7883670642
0.8530176637
0.7622689424
0.9267578939
0.9384133757
0.9625751317
0.7463806032
0.9681957241
0.9377005788
0.9052129413
0.9309776911
0.8945649703
0.8009187013
0.8487850629
0.8853892350
0.9066340139
0.9179198770
0.8937335554
0.8693955776
0.7839108111
0.7229625572
0.8712894300
0.7392136835
0.8869259406
0.8161964301
0.7513451431
0.8431831125
0.8941384352
0.8611426903
0.8869434024
0.9130980241
0.9050721105
0.8789510021
0.8058852675
0.7302497376
0.8797549250
0.7611076634
0.8890950061
0.8337974299
0.7742617057
0.8576030249
0.9007359761
0.7087062330
0.8059780808
0.7386910756
0.9694284516
0.7283905068
0.9181099642
0.8651757395
0.7961813493
0.9105864854
0.9309232413
0.9317225685
0.9357950318
0.7132320973
0.8259180382
0.8021320803
0.7540617336
0.8730115598
0.9453071515
0.7187703772
0.7782862531
0.7679721895
0.9591107113
0.7263124793
0.9274930365
0.8358276517
0.8907370129
0.9245956064
0.9314764284
0.9467740564
0.7076510749
0.8391157167
0.7374898660
0.9000541641
0.9353653274
0.8878801962
0.7102950285
0.7135303599
0.8102222031
0.8574564372
0.8853922169
0.8892130177
0.8728029309
0.8016978550
0.7105074648
0.7396818123
0.8277142476
0.7847889194
0.8618821989
0.8844126354
0.8984619809
0.7653662635
0.7229929275
0.8602871927
0.8360440712
0.8775849455
0.7035411285
0.7121202886
0.7498482400
0.8840907600
0.7336057613
0.8366384592
0.8757626377
0.8899718797
0.7029161662
0.7219334368
0.7940873802
0.8685062626
0.8922174603
0.8867128989
0.8744835857
0.8203990799
0.7171646994
0.7605182100
0.8439619670
0.8029929934
0.8549778379
0.8834531697
0.9050923597
0.7877683263
0.7431651992
0.8694406772
0.8493013406
0.8797536994
0.7048831247
0.7127851527
0.7338830264
0.8962856764
0.7578445595
0.8572780685
0.8771884080
0.7851150317
0.9210300229
0.7077103551
0.8552411201
0.7363887303
0.9238273739
0.7814696783
0.9373218015
0.8422711846
0.8396572679
0.8221271208
0.9076456778
0.8221848402
0.7649871727
0.6994525696
0.9274458143
0.7108795448
0.7526203780
0.9081237757
0.7229545266
0.9557104966
0.7815667053
0.8556462593
0.8088505919
0.7310898448
0.7865095625
0.7926171639
0.7203344123
0.7971165825
0.9267744596
0.7020058063
0.8207663728
0.7234789629
0.9209718126
0.8197453451
0.9316743748
0.8462739067
0.8436136508
0.8257020780
0.9182543606
0.8182320465
0.7516919721
0.7048583494
0.9228004820
0.7132538687
0.7673863289
0.8853115480
0.7357548305
0.9464000812
0.8865613610
0.7165479114
0.7549290471
0.7827011553
0.7472745163
0.7012384144
0.8479810152
0.8508527823
0.9095864430
0.7233044153
0.7105012758
0.7309466914
0.7546498517
0.8452177732
0.8957885549
0.8046813647
0.8995171444
0.8957917283
0.7264157226
0.8135440763
0.8262996444
0.7031454326
0.7121245611
0.7130902080
0.7119850014
0.7378879497
0.8674250430
0.8764852661
0.8844343343
0.7782763187
0.8494369827
0.8262596262
0.8107225593
0.9141140525
0.8895251071
0.7003035678
0.8366454657
0.7516103815
0.7066387566
0.7126898905
0.8817928360
0.8721465913
0.7130669525
0.7625515475
0.8751288826
0.7847946700
0.8727966980
0.8739577200
0.8757642765
0.7135597149
0.7335890025
0.7620197719
0.8780509949
0.7037679793
0.8629856686
0.8799209140
0.8269297381
0.9123888952
0.7199255632
0.7101473863
0.7232310286
0.7770993804
0.8573912319
0.8892310192
0.8284365145
0.9008472872
0.7328773021
0.8306171148
0.8390284842
0.7189230560
0.7163397451
0.7163330017
0.7421254224
0.8694383131
0.8793434461
0.8812720473
0.8152605142
0.8348375266
0.7895233286
0.9187424410
0.8962999270
0.6978093238
0.7308234065
0.8117620853
0.7731583982
0.7119938272
0.8776801872
0.8662481168
0.7255832039
0.7417692142
0.8706933835
0.7578351364
0.8572777894
0.8817239590
0.8829048724
0.7313728136
0.7171485347
0.7795695401
0.8337244335
0.9396712182
0.8950574655
0.9026471395
0.9182066642
0.7941809851
0.8384147876
0.8387408263
0.8182335199
0.7585515934
0.7449403936
0.7131614213
0.7359520668
0.9160986078
0.8654690679
0.8396552024
0.8567607879
0.9268363159
0.8047837590
0.8018221438
0.9178847290
0.8993890850
0.8313849517
0.8080680510
0.8892912699
0.7851208873
0.8258809735
0.7368734939
0.7368850268
0.7628520928
0.7015867568
0.7644666314
0.8951510840
0.7803668472
0.7503415557
0.8797379351
0.8488197247
0.7027941743
0.7610395607
0.8359059730
0.8278129046
0.7244733565
0.8336144884
0.8234463820
0.8463096522
0.9308731589
0.9099262432
0.8924837915
0.9159686090
0.8376197066
0.8006399609
0.8257029918
0.7514203837
0.7027040012
0.7503492305
0.9086216639
0.8729155577
0.8436112274
0.8587817676
0.9237825835
0.8086166005
0.8188740149
0.9196702019
0.8729986831
0.8359051151
0.8425504229
0.8697457549
0.7938418378
0.8221296024
0.7517016141
0.7993390185
0.7828574308
0.7077351909
0.7341383223
0.8922649930
0.7926230275
0.8866341290
0.8462717718
0.8306327752
0.7102204108
0.7680640584
0.8433808385
0.8313851431
0.7428961336
0.7934236457
0.7350452732
0.8654701671
0.8018338065
0.7264194448
0.8797408073
0.8046826339
0.7183314810
0.7102339330
0.7744649875
0.7218758489
0.8161654125
0.8627947877
0.7980906033
0.8750494375
0.7840512015
0.7278434717
0.8316111219
0.7429228304
0.7643328457
0.7278377478
0.7338672175
0.7378896054
0.8149686770
0.8764955714
0.8867553810
0.7224967093
0.7048878464
0.8750609934
0.7937240747
0.8155306390
0.8479833400
0.8550012622
0.7181673431
0.8267222081
0.7012407338
0.8551359518
0.7546494960
0.7512740685
0.7200176200
0.7256881346
0.8636104960
0.7110974006
0.8237362937
0.8974883044
0.8761060856
0.7127847920
0.8138050067
0.8832569420
0.7333657609
0.8265686688
0.8138042510
0.8525294233
0.8337284775
0.7479314747
0.7647821894
0.8394622250
0.8567604398
0.8474308116
0.7477387082
0.8729196043
0.8188825539
0.7221603249
0.8866420564
0.7770995553
0.7200229189
0.7558891867
0.7245001392
0.7619036329
0.7269547372
0.8112676584
0.8688967561
0.7900423923
0.8005933437
0.8251494676
0.7628745664
0.7758880515
0.7137182069
0.7419443405
0.7337386217
0.8186954958
0.8744648816
0.8496919471
0.8751462967
0.8017237681
0.8286063623
0.8282737367
0.7230824119
0.8201902522
0.8561492811
0.7421255693
0.8832423555
0.7221559691
0.7183639967
0.7199708899
0.8225501903
0.8629914003
0.8804105024
0.7498372465
0.8242287228
0.8324323703
0.8739651866
0.8463101712
0.7341583258
0.7863912158
0.8485518998
0.8587825211
0.8799967567
0.7828747406