<VTKFile type="UnstructuredGrid" version="0.1">
	<UnstructuredGrid>
		<Piece NumberOfPoints="1862" NumberOfCells="3498">
			<CellData>
				<DataArray type="Int32" Name="type" NumberOfComponents="1" Format="ascii">
0
0
0
0
0
0
0
0
0
0
0
0
0
0
0
0
1
0
0
1
0
0
0
0
0
0
0
0
0
0
0
0
0
1
0
0
0
0
0
0
0
0
0
0
0
0
0
0
0
0
1
0
0
0
0
0
0
0
0
0
0
1
0
0
0
0
0
0
0
0
0
0
0
0
0
0
0
0
0
0
0
0
0
0
0
0
0
0
0
0
0
0
0
0
0
0
0
0
0
0
0
0
0
0
0
0
0
0
0
0
0
0
0
0
0
0
0
0
0
0
0
0
0
1
0
0
0
0
0
0
0
0
0
0
0
0
0
0
0
0
0
0
0
0
0
0
0
0
0
0
0
1
0
1
1
0
0
0
0
0
0
0
0
0
0
0
0
0
1
0
1
0
0
0
0
1
0
0
0
0
0
0
0
0
1
1
0
0
0
0
0
1
0
0
0
0
0
0
0
0
1
0
0
0
0
0
0
0
0
0
0
0
0
0
0
0
0
0
0
0
0
0
0
0
0
0
0
0
0
0
0
0
0
1
0
0
0
0
0
0
0
0
0
0
0
0
0
0
0
0
0
0
0
0
0
0
0
0
0
0
0
0
0
0
0
0
0
0
0
0
0
0
0
0
0
0
0
0
0
0
0
1
0
0
0
0
0
0
0
0
0
0
0
0
0
0
0
0
0
0
0
0
0
0
0
0
0
0
0
0
0
0
0
0
0
0
0
0
0
0
0
0
0
0
0
0
0
0
0
0
0
0
1
0
0
0
0
0
0
0
0
0
0
0
0
0
0
0
0
0
0
0
0
0
0
0
0
0
0
0
0
0
0
0
0
0
0
0
0
0
0
0
0
0
0
0
0
0
0
0
0
0
0
0
0
0
0
0
0
0
1
0
0
0
0
0
0
0
0
0
0
0
0
0
0
0
0
0
0
0
0
0
0
0
0
0
0
0
0
0
0
0
0
0
0
0
0
0
0
0
0
0
0
0
0
0
0
0
0
0
0
0
0
0
0
0
0
0
0
0
0
0
0
0
0
0
0
0
0
0
0
0
0
0
0
0
0
0
0
0
0
0
0
0
0
0
0
0
0
0
0
0
0
0
0
0
0
0
0
0
0
0
0
0
0
0
0
0
0
0
0
0
0
0
0
0
0
0
0
0
0
0
0
0
0
0
0
0
0
0
0
0
0
1
0
0
0
0
0
0
0
0
0
0
0
0
0
0
0
0
0
0
0
1
0
0
0
0
0
0
0
0
0
0
0
0
0
0
0
0
0
0
0
0
0
0
0
0
0
0
0
0
0
0
0
0
0
0
0
0
0
0
0
0
0
0
0
0
0
0
0
0
0
0
0
0
0
1
0
0
0
0
0
0
0
0
0
0
0
0
0
0
0
0
0
0
0
0
0
0
0
1
0
0
0
0
0
0
0
0
0
0
0
0
0
0
0
0
0
0
0
1
0
0
0
1
0
0
0
0
0
0
0
0
0
0
0
0
0
0
0
0
0
0
0
0
0
0
0
0
0
1
0
0
0
0
0
0
0
1
0
0
0
0
0
0
0
0
0
0
0
0
0
0
0
0
0
0
0
0
0
0
0
0
0
0
1
0
0
0
0
0
0
0
1
0
0
0
0
0
0
1
0
0
0
0
0
0
0
0
0
0
0
0
0
0
0
0
0
0
0
0
0
0
0
0
0
0
0
0
0
0
0
0
0
0
0
0
0
0
1
0
0
0
0
0
1
0
0
0
0
0
0
0
1
0
0
0
0
0
0
0
0
0
0
0
0
0
1
0
0
0
0
0
0
0
0
0
0
0
0
0
0
0
0
0
0
0
0
0
0
0
0
0
0
0
0
0
0
0
0
0
0
0
0
0
0
0
0
0
0
0
0
0
0
0
0
0
0
0
0
0
1
0
0
0
0
0
0
0
0
0
0
0
0
0
0
0
0
0
0
0
1
0
0
0
0
0
0
0
0
0
1
0
0
0
0
0
0
0
0
0
0
0
0
0
0
0
0
0
0
0
0
0
0
0
0
0
0
0
0
0
1
0
1
0
0
0
0
0
0
0
0
0
0
0
0
0
0
0
0
0
0
0
0
0
0
0
0
0
0
0
1
0
0
0
1
0
0
0
0
0
0
0
0
0
0
0
0
0
0
0
0
0
0
0
0
0
0
0
0
0
0
0
0
1
0
0
0
0
0
0
0
0
0
0
0
0
0
0
0
0
0
0
0
0
0
0
0
0
0
1
0
0
0
0
0
0
0
0
0
0
0
0
0
0
0
0
0
0
0
0
0
0
0
1
0
0
0
0
0
0
1
0
0
0
0
0
0
0
0
0
0
0
1
0
0
0
0
0
0
0
0
0
0
0
0
0
0
0
0
0
0
0
0
1
0
0
0
0
0
0
0
0
0
0
0
1
0
0
0
0
0
0
0
0
0
0
0
0
0
0
0
0
0
0
0
0
0
1
0
0
0
0
0
0
0
0
0
1
1
0
1
0
1
0
0
0
0
0
0
0
0
0
0
0
1
0
0
0
0
0
1
1
0
0
0
0
0
0
1
0
0
0
0
0
1
1
1
0
0
0
0
0
0
0
0
0
0
0
0
1
1
0
0
1
0
0
0
0
0
1
0
0
0
1
0
1
0
0
0
0
0
0
0
1
0
0
0
0
0
0
0
1
0
0
1
0
0
0
0
0
0
0
0
0
0
0
0
0
0
0
1
0
0
0
0
0
0
0
0
0
0
0
0
0
0
0
0
0
0
0
0
0
0
0
0
0
0
0
0
0
0
0
0
0
0
0
0
1
0
0
0
0
0
0
1
0
0
0
1
0
0
0
0
0
0
0
0
0
0
0
1
0
0
0
0
0
0
0
0
0
0
0
0
0
0
0
0
0
0
0
0
0
0
0
0
0
0
0
0
0
0
0
0
0
0
0
0
0
0
0
0
1
1
0
0
0
0
0
0
0
0
0
0
0
0
0
1
0
0
0
0
0
0
0
0
0
0
0
0
0
0
0
0
0
0
0
0
0
0
0
0
0
0
0
0
0
0
0
0
0
0
0
0
0
0
0
0
0
0
0
0
0
0
0
0
0
0
0
0
0
0
0
0
0
0
0
0
0
0
0
0
0
0
0
0
0
0
0
0
1
1
0
0
0
0
0
0
0
0
1
0
0
0
0
0
0
0
0
0
0
0
0
0
0
0
0
0
0
0
0
0
0
0
1
0
0
0
0
0
0
0
0
0
0
0
0
0
0
0
0
1
0
0
0
0
0
0
0
0
0
0
0
0
0
0
0
0
0
0
0
0
0
0
0
0
0
0
0
0
0
0
0
0
0
0
0
0
0
0
0
0
0
0
0
0
0
0
0
0
0
0
0
0
0
0
0
0
0
0
0
0
0
0
0
0
0
0
0
0
0
0
0
0
0
0
0
0
0
0
0
0
0
0
0
0
0
0
0
0
0
0
1
1
0
0
0
0
0
1
0
0
0
0
0
0
0
0
0
0
0
0
1
0
0
0
0
0
0
0
0
0
0
0
0
0
0
0
0
0
0
0
0
0
0
0
0
0
0
0
0
0
0
0
0
0
0
0
0
0
0
0
0
0
0
0
0
0
0
0
0
0
0
0
0
0
1
0
1
0
0
0
0
0
0
0
0
0
0
0
0
0
0
0
0
0
0
1
0
0
0
0
0
0
0
0
0
0
0
0
0
0
0
0
0
0
0
0
0
0
0
0
0
0
0
0
0
0
0
0
0
0
0
0
0
0
0
0
0
0
0
0
0
0
0
0
0
0
0
0
0
0
0
0
0
0
0
0
0
0
0
0
0
0
0
0
0
0
1
0
0
0
0
0
0
0
0
0
0
1
0
0
0
0
0
0
0
0
0
0
0
0
0
0
0
0
0
0
0
0
0
0
0
0
0
0
0
0
0
0
0
0
0
0
0
0
0
1
0
0
0
0
0
0
0
0
0
0
0
0
0
0
0
0
0
0
0
0
0
0
0
0
0
0
0
0
0
0
0
0
0
0
0
0
0
0
0
0
0
0
0
0
0
0
0
0
0
0
0
0
0
0
0
0
0
0
0
0
0
0
0
0
0
0
0
0
0
0
0
0
0
0
0
0
0
0
0
0
0
1
0
0
0
0
0
0
0
0
0
0
0
0
0
0
0
0
0
0
0
0
0
0
0
0
0
0
0
0
0
0
0
0
0
0
0
0
0
0
0
0
0
0
0
0
0
0
0
0
0
0
0
0
0
0
0
0
0
0
0
0
0
0
0
0
0
0
0
0
0
0
0
0
0
0
0
0
0
0
0
0
0
0
0
0
0
0
0
0
0
0
0
0
0
0
0
0
0
0
0
0
0
0
0
0
0
0
0
0
0
0
0
0
0
0
0
0
0
0
0
0
0
0
0
1
0
0
0
0
0
0
0
0
0
0
0
0
0
0
0
0
0
0
0
0
0
0
0
0
0
0
0
0
0
0
0
0
0
0
0
0
0
0
0
0
0
0
0
0
0
0
0
0
0
0
0
0
0
0
0
0
0
0
0
0
0
0
0
0
0
0
0
0
0
0
0
0
0
0
0
0
0
0
0
0
0
1
0
0
0
0
0
0
0
1
0
0
0
0
0
0
0
0
0
0
0
0
0
0
0
0
0
0
0
0
0
0
0
0
0
0
0
0
0
0
0
0
0
0
0
0
0
1
0
0
0
0
0
0
0
0
0
0
0
0
0
0
0
0
0
0
0
0
0
1
0
0
0
0
0
0
0
0
0
0
0
0
1
1
0
0
0
0
0
0
0
0
0
0
0
0
0
0
0
1
1
0
1
0
0
0
0
0
0
0
0
0
1
0
0
0
0
0
0
1
0
0
0
0
0
0
0
0
0
0
1
0
0
0
0
1
0
1
0
0
0
0
0
0
0
1
0
0
0
1
0
0
0
1
0
1
1
0
0
1
1
0
0
0
1
0
0
0
1
0
0
0
0
0
0
0
0
0
1
0
0
0
0
0
0
1
0
0
0
0
0
0
0
0
0
0
0
0
0
0
0
0
0
0
0
0
0
0
0
0
0
0
0
1
0
0
1
0
0
0
0
0
0
0
0
0
0
0
0
0
0
0
0
0
0
1
0
0
1
0
0
0
0
0
0
0
0
0
0
0
1
0
0
1
0
0
0
0
0
0
0
0
0
0
0
1
1
0
0
0
0
0
0
0
0
0
0
0
0
1
0
0
0
0
0
0
0
0
0
0
0
0
0
0
0
0
0
1
0
0
0
0
0
0
0
0
0
0
0
0
0
0
0
0
0
1
0
0
0
0
0
0
0
0
0
0
0
0
0
0
0
0
0
0
0
0
0
0
0
0
0
0
0
0
0
0
0
0
0
0
0
0
0
0
0
0
1
0
0
0
0
0
0
0
0
0
0
0
0
0
0
0
0
0
0
0
0
0
0
0
0
0
0
0
0
0
0
0
0
0
0
0
0
0
0
0
0
0
0
0
0
0
1
0
0
0
0
0
0
0
0
0
0
0
0
0
0
0
0
0
0
0
0
0
0
0
0
0
0
0
0
0
0
0
0
0
0
0
0
0
0
0
0
0
0
0
0
0
0
0
1
0
0
0
0
0
0
0
0
0
0
1
0
0
0
0
0
0
0
0
0
0
0
0
0
0
0
1
0
0
1
0
0
0
0
0
0
0
0
0
0
0
0
0
0
0
0
0
0
0
0
0
0
0
1
0
0
0
0
0
0
0
0
0
0
0
0
0
0
0
0
0
0
0
0
0
0
0
0
0
0
0
0
0
0
0
0
0
0
0
1
0
0
0
0
0
0
0
0
0
0
0
0
0
0
0
0
0
0
0
0
0
0
0
0
0
0
0
0
0
0
0
0
0
0
0
0
0
0
0
0
0
0
0
0
0
0
0
0
0
0
0
0
0
0
0
0
0
0
0
0
0
0
0
0
0
0
0
0
0
0
0
0
0
0
0
0
1
0
0
0
0
0
0
0
0
0
0
0
0
0
0
0
0
0
0
0
0
0
0
0
0
0
0
0
0
0
0
0
0
0
0
0
0
0
0
0
1
0
0
0
0
0
0
0
0
0
0
0
0
1
1
0
0
0
0
0
0
0
0
0
0
0
0
0
0
0
0
0
0
0
0
0
0
0
0
0
0
0
0
0
0
0
0
0
0
0
0
0
0
0
0
0
0
0
0
0
0
0
0
0
0
0
0
0
0
0
0
0
0
0
0
0
0
0
0
0
0
0
0
0
0
0
0
0
0
0
0
0
0
0
0
0
0
0
0
0
0
0
0
0
0
0
0
0
0
0
0
0
0
0
0
0
1
0
1
0
0
0
0
0
0
0
1
1
1
1
0
0
0
0
0
0
0
0
0
0
0
0
0
0
0
0
0
0
0
0
0
0
0
0
0
0
0
0
1
1
0
0
0
0
0
0
0
0
0
0
0
0
0
0
0
0
0
0
1
0
0
0
0
0
0
0
1
1
0
1
1
0
0
1
0
0
0
0
0
0
0
1
0
1
0
0
0
0
0
0
0
0
0
0
0
0
0
0
0
0
0
0
0
0
0
0
0
0
0
0
0
1
1
0
0
0
1
1
0
0
0
0
1
0
0
1
0
1
0
0
0
0
0
1
0
0
0
1
0
0
0
0
0
0
0
0
0
0
0
0
0
0
0
0
0
0
0
0
0
0
0
0
0
0
0
1
0
0
0
0
0
0
1
0
0
0
0
0
0
0
0
0
0
0
0
0
0
0
0
0
0
0
0
0
0
0
0
0
0
0
0
0
1
0
1
0
0
0
0
0
0
0
1
0
0
0
0
0
0
0
0
0
0
0
1
0
0
0
0
0
0
0
0
0
1
0
0
0
0
0
0
0
1
0
0
0
0
0
0
0
1
0
0
0
0
0
0
0
0
0
0
0
0
0
0
0
0
0
0
0
1
0
1
0
0
0
0
0
1
0
0
0
0
0
0
0
0
0
0
0
0
0
0
0
0
0
0
0
0
0
0
0
0
0
1
0
1
0
0
0
0
0
0
0
0
0
1
0
0
0
0
0
1
0
0
0
0
0
0
0
0
0
0
0
0
0
0
0
1
0
0
0
0
0
0
0
0
1
0
0
0
0
0
0
0
0
0
0
0
0
0
0
0
0
0
0
0
0
0
0
0
0
0
0
0
0
0
0
1
0
0
0
0
0
0
0
0
0
0
0
0
0
0
0
0
1
0
0
0
0
0
0
0
0
1
0
0
0
0
0
0
0
0
0
1
0
0
0
0
0
1
0
0
0
0
0
0
0
0
0
0
0
0
0
0
0
0
0
0
0
1
0
0
0
0
0
0
1
0
0
0
0
0
0
0
0
1
0
0
0
0
0
0
0
0
0
0
0
0
0
0
1
0
0
1
0
0
0
1
0
0
0
0
0
0
0
0
0
0
0
0
0
0
0
0
1
0
0
0
0
0
0
0
0
0
0
1
0
1
0
0
0
0
0
0
1
0
0
0
0
0
0
0
0
0
0
0
0
0
0
0
0
0
0
0
0
0
0
0
0
0
0
0
1
1
0
0
0
0
0
0
1
0
0
0
0
0
0
0
0
0
0
0
0
0
1
0
0
0
0
0
0
0
1
0
0
0
0
0
0
0
0
0
0
0
0
0
0
0
0
0
0
0
0
0
0
0
0
0
0
0
1
0
0
0
0
0
0
0
0
0
0
1
0
0
1
0
0
0
0
0
0
0
0
0
0
0
0
0
0
0
0
0
0
0
0
0
0
0
0
0
0
0
0
0
1
0
0
0
0
0
0
0
1
0
0
0
0
0
0
0
1
0
0
0
0
1
0
0
0
0
0
0
0
0
0
0
0
1
0
1
0
0
0
1
0
				</DataArray>
				<DataArray type="Float64" Name="h" NumberOfComponents="1" Format="ascii">
0.8710283867
0.8710559409
0.8671037613
0.8697928564
0.8671073590
0.8682416471
0.8680192243
0.8718576673
0.8701514739
0.8741516877
0.8708437946
0.8680879452
0.8709259712
0.8721713936
0.8712709831
0.8724005608
0.8691495609
0.8733816427
0.8695503694
0.8712336202
0.8662224267
0.8703967807
0.8669066994
0.8662588725
0.8699657702
0.8749386554
0.8665501780
0.8580081539
0.8660759557
0.8727516348
0.8720285619
0.8679217676
0.8698421872
0.8673663681
0.8626264337
0.8649324820
0.8641687116
0.8648675325
0.8558844451
0.8651579406
0.8664992339
0.8599617988
0.8673616629
0.8637791070
0.8649672609
0.8602787149
0.8659722420
0.8618862903
0.8460783644
0.8477204167
0.8654938273
0.8630238392
0.8647993394
0.8550886218
0.8621551795
0.8651503502
0.8614345544
0.8595248027
0.8588948639
0.8574791205
0.8560482820
0.8576642615
0.8482424802
0.8637938378
0.8618729594
0.8543373157
0.8476983112
0.8497642734
0.8573445370
0.8590094633
0.8575596008
0.8631291439
0.8626694185
0.8546400917
0.8569207772
0.8497762488
0.8594901548
0.8553509676
0.8599895901
0.8524911537
0.8525218531
0.8534906464
0.8323303018
0.8495537458
0.8540376317
0.8490268303
0.8511304716
0.8479237539
0.8541550655
0.8379425108
0.8497878459
0.8504930161
0.8538613265
0.8427858661
0.8494675585
0.8502626752
0.8466380946
0.8540462738
0.8538092542
0.8508470251
0.8365294876
0.8530905384
0.8506601503
0.8607185588
0.8760347863
0.8468610333
0.8456629354
0.8440236493
0.8563536121
0.8509615461
0.8445272286
0.8415237112
0.8518481261
0.8492260401
0.8517210853
0.8382996237
0.8519319618
0.8757912862
0.8428627857
0.8522821011
0.8762813815
0.8479578952
0.8459557364
0.8778804542
0.8508318430
0.8422943344
0.8524498992
0.8782843111
0.8407726239
0.8372204455
0.8441224927
0.8469708120
0.8523480134
0.8367331820
0.8749038875
0.8450181830
0.8757683792
0.8343564231
0.8489025038
0.8711059515
0.8789410808
0.8765053310
0.8401793919
0.8683571786
0.8467445020
0.8468377644
0.8731377328
0.8246771075
0.8771395929
0.8196943098
0.8764107356
0.8327042111
0.8304685652
0.8203268393
0.8507672144
0.8313654743
0.8236019590
0.8776534151
0.8208876516
0.8806574957
0.8704066026
0.8257970687
0.8746172843
0.8790728283
0.8781212270
0.8306844595
0.8648158015
0.8732319980
0.8799799511
0.8282944687
0.8259584564
0.8810171629
0.8213419668
0.8779759992
0.8630983807
0.8149128874
0.8671049337
0.8209823116
0.8159644561
0.8795535438
0.8324461721
0.8585594906
0.8809007195
0.8440524015
0.8805351553
0.8832105852
0.8607107612
0.8173349193
0.8808913627
0.8840768050
0.8539680911
0.8164261081
0.8820019312
0.8562227194
0.8154063311
0.8248894749
0.8787931654
0.8496537901
0.8517632659
0.8152675516
0.8840273369
0.8429197741
0.8834774437
0.8164087269
0.8457476898
0.8805515630
0.8728407961
0.8765649343
0.8475470016
0.8671635118
0.8546144639
0.8823519759
0.8798429773
0.8813606248
0.8749049740
0.8501731620
0.8702897496
0.8794204532
0.8590831273
0.8811473784
0.8438829076
0.8402806254
0.8633732944
0.8433578827
0.8414418173
0.8165348855
0.8306414473
0.8422441127
0.8426853997
0.8359976672
0.8165374508
0.8427092061
0.8414609025
0.8148842665
0.8200313995
0.8429130846
0.8526790314
0.8723024009
0.8820544432
0.8662622410
0.8538804619
0.8760012854
0.8797888377
0.8656530119
0.8758532348
0.8721727067
0.8801923381
0.8570789675
0.8744094842
0.8787383432
0.8695446858
0.8581415391
0.8789855532
0.8486554477
0.8499494896
0.8806381284
0.8692122099
0.8743325569
0.8813694467
0.8426048859
0.8623824345
0.8407565212
0.8402427784
0.8414347352
0.8407546204
0.8211171021
0.8165633677
0.8433881181
0.8149020976
0.8390462085
0.8304485767
0.8615177537
0.8371533440
0.8419559086
0.8427844333
0.8429046542
0.8399698201
0.8409164123
0.8409974216
0.8413653703
0.8321084102
0.8146731561
0.8170975054
0.8201852746
0.8353648973
0.8408520157
0.8410796080
0.8718292119
0.8794217305
0.8791347723
0.8712905434
0.8525400165
0.8755754285
0.8753943193
0.8658399865
0.8544863873
0.8646699668
0.8739560379
0.8781106942
0.8806508213
0.8798749481
0.8735833379
0.8565196101
0.8512329712
0.8490939607
0.8691110544
0.8582387813
0.8682637595
0.8781903915
0.8417500725
0.8400056103
0.8394978715
0.8146792143
0.8445812153
0.8304491447
0.8405878287
0.8621297092
0.8359769614
0.8167840214
0.8606673744
0.8399943554
0.8399793683
0.8380276891
0.8213154458
0.8400780319
0.8396108943
0.8397013211
0.8171678689
0.8406225062
0.8391279546
0.8318954845
0.8204886276
0.8146434631
0.8448923581
0.8396713728
0.8416154816
0.8348694183
0.8707145776
0.8197595745
0.8661394525
0.8565131396
0.8644338345
0.8787112327
0.8537697804
0.8752737600
0.8716828948
0.8748743751
0.8785912648
0.8296027379
0.8529044186
0.8540210164
0.8423858011
0.8730645576
0.8775083132
0.8257619776
0.8691327803
0.8546670979
0.8595578638
0.8678022502
0.8411510634
0.8376394782
0.8198700499
0.8798855224
0.8571585724
0.8511177039
0.8737192505
0.8622349060
0.8597624593
0.8464876218
0.8791804011
0.8485308678
0.8365062864
0.8775429618
0.8173284208
0.8393226809
0.8395641587
0.8217304740
0.8776793855
0.8305687866
0.8445558033
0.8474587232
0.8354339012
0.8147458892
0.8628649416
0.8375241029
0.8607936563
0.8409603821
0.8393265966
0.8403260904
0.8782431182
0.8149414259
0.8485236503
0.8394637030
0.8756442207
0.8211546658
0.8390178170
0.8773968628
0.8778704254
0.8780847041
0.8771555768
0.8418671527
0.8312955949
0.8776857162
0.8381284639
0.8764372192
0.8174907217
0.8346990660
0.8436086921
0.8396949725
0.8780723431
0.8397543428
0.8572052191
0.8384632518
0.8584424682
0.8706637535
0.8248999317
0.8324232914
0.8651256140
0.8403001828
0.8478044874
0.8676381903
0.8677084211
0.8745317549
0.8340243645
0.8233812362
0.8412347067
0.8193863445
0.8780059332
0.8401559756
0.8565883295
0.8494163527
0.8242079763
0.8459515601
0.8320151636
0.8514593957
0.8443285166
0.8433626411
0.8360146223
0.8238215591
0.8722728956
0.8637954342
0.8585319580
0.8728270588
0.8485256986
0.8699695925
0.8680523908
0.8446914012
0.8650022880
0.8401538911
0.8435969767
0.8503526787
0.8162094856
0.8791894072
0.8517249010
0.8591213744
0.8677103535
0.8259066732
0.8351198736
0.8566644696
0.8315907521
0.8769485873
0.8546711191
0.8712740690
0.8152195347
0.8620254390
0.8390234519
0.8426427791
0.8436822934
0.8788855713
0.8745198773
0.8226178053
0.8668908480
0.8353428739
0.8624330079
0.8516697683
0.8401843197
0.8330639373
0.8809838241
0.8773470893
0.8771091294
0.8772485034
0.8593933635
0.8730694230
0.8182114350
0.8516291648
0.8424657787
0.8315509738
0.8776478694
0.8395806244
0.8801892982
0.8717449767
0.8472041650
0.8339216452
0.8765720607
0.8774020918
0.8782308868
0.8691616070
0.8418267336
0.8377928588
0.8785188728
0.8639381447
0.8520740128
0.8809023154
0.8780907019
0.8771578376
0.8645829195
0.8413902282
0.8786142058
0.8588181230
0.8715034211
0.8776420949
0.8606531524
0.8631548984
0.8668965028
0.8756407258
0.8773544169
0.8551049970
0.8678950558
0.8775723474
0.8695671364
0.8606615663
0.8600604667
0.8683944133
0.8187794641
0.8730575200
0.8477039341
0.8801404163
0.8617481044
0.8767518743
0.8642102934
0.8471639884
0.8712820501
0.8535333817
0.8755139269
0.8745283251
0.8857597897
0.8765795050
0.8691678941
0.8786217558
0.8767530756
0.8594025215
0.8867258218
0.8845829121
0.8780519385
0.8867096617
0.8714104729
0.8782375262
0.8624402345
0.8870875892
0.8830148606
0.8272229417
0.8858758160
0.8744358461
0.8822673978
0.8770202017
0.8800403107
0.8630647348
0.8813454373
0.8396395235
0.8302550595
0.8657975672
0.8799654406
0.8351168098
0.8730784443
0.8842191027
0.8360058835
0.8645889963
0.8426473552
0.8693338889
0.8162089612
0.8676449152
0.8689566729
0.8561990471
0.8661277201
0.8478184147
0.8774976336
0.8565706001
0.8745643313
0.8631545130
0.8703464473
0.8738331998
0.8401563529
0.8639371734
0.8814447501
0.8735091224
0.8763419327
0.8238232328
0.8384627450
0.8446968642
0.8867987325
0.8193927816
0.8884138025
0.8805531683
0.8859300506
0.8894276208
0.8517336590
0.8692956543
0.8776956228
0.8348336819
0.8807254327
0.8778637677
0.8715227064
0.8375133638
0.8748150047
0.8412518633
0.8910335322
0.8927661720
0.8479730298
0.8324104919
0.8791162379
0.8931695379
0.8767708966
0.8528446388
0.8839002870
0.8745647223
0.8756363761
0.8710257906
0.8755217829
0.8676492707
0.8642160052
0.8730650301
0.8240806826
0.8776607770
0.8771559467
0.8775792324
0.8727183352
0.8829819384
0.8551188643
0.8770271408
0.8930158815
0.8927670310
0.8864470335
0.8946711261
0.8630704001
0.8695714534
0.8658024932
0.8744443055
0.8637345550
0.8501570697
0.8668905554
0.8723825982
0.8780593019
0.8946158464
0.8913470799
0.8719359065
0.8313968819
0.8572735511
0.8822678081
0.8926225816
0.8431324068
0.8841217133
0.8744029866
0.8768878654
0.8761791547
0.8812225799
0.8727519798
0.8711346430
0.8714158886
0.8668906063
0.8750952022
0.8772543149
0.8764202516
0.8692527363
0.8597552968
0.8462284202
0.8692219870
0.8795400786
0.8736100901
0.8766701442
0.8756753516
0.8410397782
0.8393502444
0.8857608553
0.8952563260
0.8897673797
0.8903083931
0.8651977278
0.8896755398
0.8920849109
0.8458449068
0.8515754238
0.8852171437
0.8885933587
0.8639881204
0.8907153323
0.8934537606
0.8876498349
0.8588007111
0.8484849969
0.8544823566
0.8891519505
0.8871125385
0.8840130596
0.8853548028
0.8885170609
0.8603064686
0.8572031533
0.8638098832
0.8625948861
0.8802268129
0.8541791278
0.8502351756
0.8823249673
0.8501643770
0.8554098026
0.8791195067
0.8489589775
0.8858794613
0.8485335746
0.8825934302
0.8844305664
0.8494521425
0.8839035516
0.8504141518
0.8429284944
0.8799705868
0.8424803800
0.8797835198
0.8802640221
0.8455213586
0.8380473238
0.8779824041
0.8688215051
0.8688742978
0.8689006465
0.8688468216
0.8692050379
0.8680723172
0.8708256363
0.8709943002
0.8677076174
0.8682271612
0.8671243691
0.8677266282
0.8701692659
0.8712484629
0.8679982302
0.8730258196
0.8710163322
0.8692219354
0.8726263718
0.8733631341
0.8698118823
0.8671190698
0.8695226898
0.8727347706
0.8728053595
0.8681268926
0.8718785039
0.8749260319
0.8699483784
0.8741704687
0.8714336113
0.8709528606
0.8669616721
0.8717155074
0.8691271161
0.8730441042
0.8720111488
0.8726505259
0.8673543270
0.8698125198
0.8678857998
0.8687627505
0.8651450407
0.8571314133
0.8691643498
0.8724215864
0.8673259860
0.8558490982
0.8681411781
0.8728249293
0.8664735742
0.8721884146
0.8712496127
0.8669752839
0.8669402495
0.8606962759
0.8704235814
0.8651444683
0.8714601334
0.8662339763
0.8691631465
0.8683980358
0.8566735517
0.8618786871
0.8717387450
0.8649505962
0.8654841071
0.8659331054
0.8580365097
0.8662736325
0.8661010392
0.8614074526
0.8587225870
0.8665888912
0.8626600183
0.8743040240
0.8571640397
0.8611281318
0.8623408293
0.8687947955
0.8647660846
0.8607029602
0.8468127129
0.8495195838
0.8684314875
0.8651561148
0.8639950613
0.8566895163
0.8649517209
0.8618409870
0.8649061541
0.8612496090
0.8626357500
0.8482681045
0.8497774793
0.8580882710
0.8641778375
0.8637742601
0.8611379473
0.8601125501
0.8588560205
0.8638076681
0.8546361299
0.8571791105
0.8631164983
0.8626271554
0.8585948035
0.8583651111
0.8604469252
0.8626695486
0.8564715056
0.8623489329
0.8599805375
0.8594861366
0.8575586770
0.8547147886
0.8569180668
0.8587566694
0.8634572567
0.8573435157
0.8635553222
0.8743230646
0.8590033736
0.8640077530
0.8612590860
0.8526926624
0.8581059149
0.8501880450
0.8604595634
0.8475522638
0.8460456990
0.8630460753
0.8495043401
0.8603062116
0.8534819220
0.8495589028
0.8570325497
0.8467837108
0.8476987349
0.8560478221
0.8576694057
0.8634955270
0.8546530314
0.8547113887
0.8588980001
0.8594508061
0.8571835940
0.8517605533
0.8608095547
0.8601183889
0.8635639230
0.8597452825
0.8621698654
0.8575412486
0.8585977460
0.8564748720
0.8651892911
0.8547933001
0.8562541266
0.8584025949
0.8550915200
0.8588600644
0.8574818225
0.8504602281
0.8595293976
0.8604811154
0.8538670603
0.8501767002
0.8607111006
0.8537762379
0.8570385476
0.8559742344
0.8604655803
0.8530921462
0.8470113920
0.8535724102
0.8496318734
0.8543536662
0.8365495589
0.8476897585
0.8613808867
0.8540099041
0.8546244478
0.8502372908
0.8579589059
0.8475382752
0.8508551878
0.8468518776
0.8527228022
0.8307740042
0.8547995649
0.8563542128
0.8415570680
0.8546509220
0.8562542611
0.8518547078
0.8597514168
0.8498105140
0.8448592756
0.8594557779
0.8553480891
0.8608494186
0.8485660363
0.8517913420
0.8445579414
0.8509517044
0.8575405912
0.8535662454
0.8307690351
0.8542426841
0.8546255305
0.8490592527
0.8479515440
0.8544365971
0.8613885914
0.8763655999
0.8579631158
0.8496280905
0.8540732860
0.8525314082
0.8511241411
0.8323241211
0.8525173338
0.8519317906
0.8599946396
0.8470140410
0.8762673816
0.8479325371
0.8560098300
0.8485554763
0.8469498875
0.8455395642
0.8756837697
0.8423245220
0.8527781478
0.8478235349
0.8541492797
0.8494885134
0.8427513828
0.8384155765
0.8379200029
0.8497748058
0.8447113464
0.8597564628
0.8508430731
0.8524485477
0.8448352135
0.8372278911
0.8506675177
0.8369576418
0.8452097574
0.8542442994
0.8763790815
0.8544301067
0.8470001146
0.8748894643
0.8450322792
0.8523584141
0.8760490802
0.8466591149
0.8467164873
0.8450496063
0.8764934134
0.8516175518
0.8756959362
0.8384048892
0.8492062858
0.8439914843
0.8745036276
0.8597633131
0.8478090630
0.8517211590
0.8771285489
0.8455235222
0.8401868172
0.8787441173
0.8382927289
0.8527720493
0.8468484931
0.8446879396
0.8456898746
0.8765386809
0.8476344459
0.8444890528
0.8299514421
0.8369436310
0.8469739765
0.8772689687
0.8367427471
0.8384121918
0.8486903518
0.8522754338
0.8452072397
0.8327157264
0.8758054762
0.8465111856
0.8428442821
0.8743767952
0.8764021766
0.8304741684
0.8507716453
0.8745186717
0.8787532849
0.8732189039
0.8781119913
0.8516083489
0.8236129434
0.8765505464
0.8787765080
0.8208365283
0.8447513305
0.8450523598
0.8778907947
0.8407654696
0.8703849314
0.8770541167
0.8459864468
0.8441115964
0.8741698603
0.8746081262
0.8432325104
0.8257953200
0.8782932415
0.8208907900
0.8486824962
0.8757802117
0.8367228852
0.8284239889
0.8439325383
0.8383936760
0.8343826636
0.8343509914
0.8213509373
0.8734239318
0.8774083498
0.8488954138
0.8743909252
0.8445085264
0.8772760104
0.8299418335
0.8476644777
0.8465022469
0.8282943458
0.8433277940
0.8367356671
0.8259698680
0.8779664695
0.8196919942
0.8808921956
0.8445311646
0.8770663599
0.8787836407
0.8323850041
0.8251586523
0.8195275102
0.8683848734
0.8246786227
0.8731503285
0.8795489707
0.8208379063
0.8741849778
0.8447682029
0.8803589283
0.8789492133
0.8324467835
0.8432240411
0.8670770922
0.8458089339
0.8711268037
0.8236105754
0.8801825051
0.8808844733
0.8313643542
0.8235933802
0.8774170578
0.8430464133
0.8284212231
0.8756491878
0.8734390706
0.8439575330
0.8805281600
0.8343777181
0.8203155526
0.8776623815
0.8433180552
0.8606774118
0.8436576673
0.8154176683
0.8648482332
0.8801887038
0.8323817216
0.8248845930
0.8803671684
0.8195209758
0.8458002066
0.8261867879
0.8813813498
0.8251546073
0.8445579918
0.8793572835
0.8164373528
0.8395757264
0.8790779880
0.8306828115
0.8561915696
0.8199334857
0.8806645453
0.8428908946
0.8150297593
0.8810242375
0.8834708227
0.8631293749
0.8164170781
0.8430757133
0.8799882101
0.8840202600
0.8756618586
0.8517343806
0.8155321273
0.8159538293
0.8792411397
0.8813888062
0.8793640971
0.8823444566
0.8199360095
0.8261919154
0.8802024800
0.8263302883
0.8585905209
0.8395648492
0.8149013763
0.8436881858
0.8828453943
0.8831673268
0.8209889207
0.8798269944
0.8475183337
0.8539960169
0.8165430598
0.8150185911
0.8840841312
0.8155213956
0.8172966343
0.8150848698
0.8440803604
0.8832170820
0.8173262070
0.8438607960
0.8801878362
0.8721601592
0.8783340083
0.8758469541
0.8496790087
0.8831750499
0.8463239734
0.8816068795
0.8656313477
0.8781024010
0.8792500255
0.8526586024
0.8820108043
0.8822374034
0.8263382166
0.8788003831
0.8814592336
0.8743245916
0.8774435836
0.8486366929
0.8691936805
0.8789812137
0.8570564762
0.8828539176
0.8820472481
0.8802273331
0.8171830524
0.8452647529
0.8457704260
0.8172906003
0.8408850925
0.8614948341
0.8150738437
0.8427716942
0.8413414089
0.8170956873
0.8321160919
0.8249968794
0.8410464623
0.8433674281
0.8371834105
0.8152572500
0.8426201952
0.8407261515
0.8149119940
0.8264116066
0.8211035990
0.8419255653
0.8546383974
0.8712790906
0.8774218625
0.8811545223
0.8646544206
0.8525240550
0.8781083340
0.8463452050
0.8783394312
0.8810590474
0.8467319410
0.8753883253
0.8794118267
0.8816178622
0.8671852318
0.8765727221
0.8728527062
0.8805567054
0.8591071863
0.8735753991
0.8781822305
0.8822449632
0.8682491809
0.8565033994
0.8794258955
0.8501965098
0.8490768665
0.8768022472
0.8807223818
0.8703077217
0.8774512317
0.8749134303
0.8814690579
0.8426839639
0.8606512084
0.8464170078
0.8415962441
0.8395834902
0.8405992924
0.8414960873
0.8264222048
0.8200400275
0.8171603274
0.8427086104
0.8148724045
0.8250639860
0.8391542073
0.8319098652
0.8633965298
0.8171803395
0.8359749165
0.8429306427
0.8433533587
0.8445638655
0.8399579260
0.8399745425
0.8405905577
0.8414729442
0.8306369048
0.8250061698
0.8146876947
0.8452844912
0.8165327857
0.8212980444
0.8360082464
0.8264885784
0.8402462231
0.8422748481
0.8707042987
0.8768653412
0.8797971650
0.8810732418
0.8787022233
0.8723132359
0.8538995423
0.8488087765
0.8748674863
0.8467519253
0.8760081250
0.8644229797
0.8537549013
0.8662776264
0.8774294890
0.8730561593
0.8775006362
0.8807349281
0.8799491262
0.8744172716
0.8581597089
0.8511018353
0.8762751437
0.8499685282
0.8768088909
0.8677912406
0.8571457423
0.8695588934
0.8787454481
0.8435926619
0.8409452189
0.8396783204
0.8146622533
0.8429222274
0.8313125734
0.8409823026
0.8607820976
0.8353373971
0.8264972186
0.8253228358
0.8174793311
0.8492815390
0.8623987395
0.8394421326
0.8399997588
0.8381442664
0.8201983963
0.8409473763
0.8402763029
0.8393039811
0.8165655833
0.8464344557
0.8269418046
0.8414454300
0.8390158121
0.8304414053
0.8217140717
0.8147514561
0.8474375120
0.8393150350
0.8407796625
0.8354603054
0.8250729376
0.8249032073
0.8494111908
0.8523569693
0.8403030392
0.8718390592
0.8768727191
0.8212163291
0.8302794377
0.8651178832
0.8554082489
0.8565759422
0.8658507664
0.8436956533
0.8340298098
0.8217379903
0.8791447297
0.8545025354
0.8488277313
0.8745234711
0.8706545919
0.8755825576
0.8572016774
0.8647387751
0.8443262304
0.8779978167
0.8487173717
0.8384731022
0.8764753061
0.8281358578
0.8499965014
0.8546558627
0.8408860043
0.8739640850
0.8781190401
0.8177383713
0.8272812491
0.8680441456
0.8517331651
0.8591109780
0.8691219621
0.8432640396
0.8363584058
0.8187851115
0.8799610174
0.8582531529
0.8512501438
0.8758585204
0.8728179097
0.8762819568
0.8590379492
0.8627970028
0.8444189213
0.8791905419
0.8461543965
0.8346956898
0.8769409287
0.8766416420
0.8182001910
0.8535536414
0.8396688511
0.8809625465
0.8260095428
0.8395573493
0.8205013841
0.8771035244
0.8781494365
0.8775018915
0.8315672041
0.8801835222
0.8825768913
0.8471824921
0.8269442246
0.8449075179
0.8753148407
0.8348434943
0.8733873246
0.8146343468
0.8620170074
0.8377978912
0.8621416777
0.8400957795
0.8397281570
0.8825113242
0.8413828129
0.8808984013
0.8152217325
0.8516544217
0.8400136067
0.8778621941
0.8226073321
0.8390143684
0.8253284907
0.8771574791
0.8776841480
0.8794035312
0.8268457575
0.8800127835
0.8801048302
0.8436702496
0.8304379787
0.8493022310
0.8807231375
0.8380049521
0.8788837978
0.8167887469
0.8353610339
0.8417629744
0.8395220874
0.8809807848
0.8401728144
0.8540954625
0.8446321212
0.8378185098
0.8267181256
0.8678928825
0.8554130410
0.8600593847
0.8588731714
0.8716921447
0.8238690594
0.8521512563
0.8312848521
0.8238708346
0.8740831378
0.8661472594
0.8391535296
0.8453068251
0.8647401816
0.8468059483
0.8645991839
0.8660477839
0.8752818975
0.8325849378
0.8217331821
0.8402925890
0.8396473214
0.8391560413
0.8471679565
0.8183069113
0.8786002133
0.8533908721
0.8384670271
0.8565263112
0.8622361746
0.8676366922
0.8272358121
0.8302588062
0.8468072108
0.8535326312
0.8262349458
0.8436946138
0.8302725683
0.8363671331
0.8764831141
0.8523766402
0.8487176629
0.8425714322
0.8233860600
0.8529124306
0.8404572819
0.8350967050
0.8401616720
0.8221652687
0.8699374615
0.8597644514
0.8609593756
0.8554212573
0.8737281483
0.8212149628
0.8516190381
0.8279232671
0.8719564615
0.8691413401
0.8376328974
0.8428676183
0.8701240741
0.8701219961
0.8623604106
0.8758661705
0.8295939136
0.8257568456
0.8394972484
0.8409592541
0.8476302503
0.8156948777
0.8792006411
0.8488275982
0.8514591524
0.8411489902
0.8595689496
0.8645999881
0.8240914293
0.8330190499
0.8464890196
0.8536932669
0.8225947494
0.8461549353
0.8346941483
0.8337362403
0.8775509971
0.8540355795
0.8517334214
0.8423863789
0.8720463809
0.8149339496
0.8528482171
0.8375140833
0.8268432966
0.8628737780
0.8772541465
0.8390240279
0.8800185492
0.8689560574
0.8412870981
0.8418744156
0.8764393192
0.8348476309
0.8762804308
0.8781545858
0.8752096710
0.8211647680
0.8819549638
0.8673598768
0.8431348215
0.8346789867
0.8788631512
0.8645057854
0.8474402820
0.8766450341
0.8778768813
0.8745083582
0.8745112134
0.8621226512
0.8485445120
0.8397704279
0.8311578638
0.8780756781
0.8819462652
0.8780613689
0.8776849843
0.8565657263
0.8727462697
0.8784580316
0.8792710235
0.8580762806
0.8776811583
0.8599323000
0.8738262171
0.8173332308
0.8479767624
0.8399182636
0.8305563177
0.8775872664
0.8395806406
0.8794098121
0.8701201997
0.8445708088
0.8819477503
0.8314138192
0.8771496910
0.8776891619
0.8756682324
0.8260113974
0.8805485114
0.8698621285
0.8391941042
0.8375121217
0.8784633802
0.8611262781
0.8486418642
0.8782472146
0.8775085837
0.8801067626
0.8770735943
0.8647189814
0.8535721402
0.8403362622
0.8297896182
0.8825149384
0.8785457573
0.8771628242
0.8775769395
0.8570401927
0.8702075848
0.8776088876
0.8788575573
0.8598245482
0.8603291880
0.8826523615
0.8762883817
0.8673655694
0.8740842988
0.8780693290
0.8521478830
0.8722746090
0.8570501962
0.8905256310
0.8652577278
0.8860713302
0.8769702916
0.8895179455
0.8284105611
0.8697837753
0.8571131391
0.8789311909
0.8598335609
0.8849540101
0.8571134920
0.8444201587
0.8660497128
0.8830084142
0.8325923034
0.8177368570
0.8756399600
0.8590413021
0.8284025562
0.8849045376
0.8727472867
0.8446259340
0.8363521758
0.8793079738
0.8786151115
0.8540904455
0.8763484141
0.8588730644
0.8485329174
0.8748299392
0.8831569538
0.8320170518
0.8624808097
0.8815368825
0.8197600095
0.8389355425
0.8627987064
0.8444908760
0.8297244318
0.8656599903
0.8805771863
0.8444877031
0.8375647145
0.8720550066
0.8881847174
0.8506462492
0.8750153990
0.8752183115
0.8365010649
0.8868458571
0.8771573808
0.8698688986
0.8782483153
0.8785547583
0.8554211642
0.8748315358
0.8617476475
0.8580862802
0.8880086823
0.8637973462
0.8861782872
0.8778979000
0.8885908445
0.8713165842
0.8786505589
0.8621303125
0.8888043951
0.8584400196
0.8566648523
0.8699714209
0.8844262190
0.8198636345
0.8477097823
0.8262234889
0.8876527963
0.8739936095
0.8485208716
0.8827864052
0.8792389588
0.8764586511
0.8623612707
0.8297357809
0.8782476618
0.8801852818
0.8648744695
0.8825886993
0.8404492172
0.8315867876
0.8668134244
0.8811523942
0.8435910692
0.8363645048
0.8738355004
0.8850580307
0.8503506758
0.8758250980
0.8756759687
0.8350843312
0.8647251814