<VTKFile type="UnstructuredGrid" version="0.1">
	<UnstructuredGrid>
		<Piece NumberOfPoints="1862" NumberOfCells="3498">
			<CellData>
				<DataArray type="Int32" Name="type" NumberOfComponents="1" Format="ascii">
0
0
0
0
0
0
0
0
0
0
0
0
0
0
0
0
1
0
0
1
0
0
0
0
0
0
0
0
0
0
0
0
0
1
0
0
0
0
0
0
0
0
0
0
0
0
0
0
0
0
1
0
0
0
0
0
0
0
0
0
0
1
0
0
0
0
0
0
0
0
0
0
0
0
0
0
0
0
0
0
0
0
0
0
0
0
0
0
0
0
0
0
0
0
0
0
0
0
0
0
0
0
0
0
0
0
0
0
0
0
0
0
0
0
0
0
0
0
0
0
0
0
0
1
0
0
0
0
0
0
0
0
0
0
0
0
0
0
0
0
0
0
0
0
0
0
0
0
0
0
0
1
0
1
1
0
0
0
0
0
0
0
0
0
0
0
0
0
1
0
1
0
0
0
0
1
0
0
0
0
0
0
0
0
1
1
0
0
0
0
0
1
0
0
0
0
0
0
0
0
1
0
0
0
0
0
0
0
0
0
0
0
0
0
0
0
0
0
0
0
0
0
0
0
0
0
0
0
0
0
0
0
0
1
0
0
0
0
0
0
0
0
0
0
0
0
0
0
0
0
0
0
0
0
0
0
0
0
0
0
0
0
0
0
0
0
0
0
0
0
0
0
0
0
0
0
0
0
0
0
0
1
0
0
0
0
0
0
0
0
0
0
0
0
0
0
0
0
0
0
0
0
0
0
0
0
0
0
0
0
0
0
0
0
0
0
0
0
0
0
0
0
0
0
0
0
0
0
0
0
0
0
1
0
0
0
0
0
0
0
0
0
0
0
0
0
0
0
0
0
0
0
0
0
0
0
0
0
0
0
0
0
0
0
0
0
0
0
0
0
0
0
0
0
0
0
0
0
0
0
0
0
0
0
0
0
0
0
0
0
1
0
0
0
0
0
0
0
0
0
0
0
0
0
0
0
0
0
0
0
0
0
0
0
0
0
0
0
0
0
0
0
0
0
0
0
0
0
0
0
0
0
0
0
0
0
0
0
0
0
0
0
0
0
0
0
0
0
0
0
0
0
0
0
0
0
0
0
0
0
0
0
0
0
0
0
0
0
0
0
0
0
0
0
0
0
0
0
0
0
0
0
0
0
0
0
0
0
0
0
0
0
0
0
0
0
0
0
0
0
0
0
0
0
0
0
0
0
0
0
0
0
0
0
0
0
0
0
0
0
0
0
0
1
0
0
0
0
0
0
0
0
0
0
0
0
0
0
0
0
0
0
0
1
0
0
0
0
0
0
0
0
0
0
0
0
0
0
0
0
0
0
0
0
0
0
0
0
0
0
0
0
0
0
0
0
0
0
0
0
0
0
0
0
0
0
0
0
0
0
0
0
0
0
0
0
0
1
0
0
0
0
0
0
0
0
0
0
0
0
0
0
0
0
0
0
0
0
0
0
0
1
0
0
0
0
0
0
0
0
0
0
0
0
0
0
0
0
0
0
0
1
0
0
0
1
0
0
0
0
0
0
0
0
0
0
0
0
0
0
0
0
0
0
0
0
0
0
0
0
0
1
0
0
0
0
0
0
0
1
0
0
0
0
0
0
0
0
0
0
0
0
0
0
0
0
0
0
0
0
0
0
0
0
0
0
1
0
0
0
0
0
0
0
1
0
0
0
0
0
0
1
0
0
0
0
0
0
0
0
0
0
0
0
0
0
0
0
0
0
0
0
0
0
0
0
0
0
0
0
0
0
0
0
0
0
0
0
0
0
1
0
0
0
0
0
1
0
0
0
0
0
0
0
1
0
0
0
0
0
0
0
0
0
0
0
0
0
1
0
0
0
0
0
0
0
0
0
0
0
0
0
0
0
0
0
0
0
0
0
0
0
0
0
0
0
0
0
0
0
0
0
0
0
0
0
0
0
0
0
0
0
0
0
0
0
0
0
0
0
0
0
1
0
0
0
0
0
0
0
0
0
0
0
0
0
0
0
0
0
0
0
1
0
0
0
0
0
0
0
0
0
1
0
0
0
0
0
0
0
0
0
0
0
0
0
0
0
0
0
0
0
0
0
0
0
0
0
0
0
0
0
1
0
1
0
0
0
0
0
0
0
0
0
0
0
0
0
0
0
0
0
0
0
0
0
0
0
0
0
0
0
1
0
0
0
1
0
0
0
0
0
0
0
0
0
0
0
0
0
0
0
0
0
0
0
0
0
0
0
0
0
0
0
0
1
0
0
0
0
0
0
0
0
0
0
0
0
0
0
0
0
0
0
0
0
0
0
0
0
0
1
0
0
0
0
0
0
0
0
0
0
0
0
0
0
0
0
0
0
0
0
0
0
0
1
0
0
0
0
0
0
1
0
0
0
0
0
0
0
0
0
0
0
1
0
0
0
0
0
0
0
0
0
0
0
0
0
0
0
0
0
0
0
0
1
0
0
0
0
0
0
0
0
0
0
0
1
0
0
0
0
0
0
0
0
0
0
0
0
0
0
0
0
0
0
0
0
0
1
0
0
0
0
0
0
0
0
0
1
1
0
1
0
1
0
0
0
0
0
0
0
0
0
0
0
1
0
0
0
0
0
1
1
0
0
0
0
0
0
1
0
0
0
0
0
1
1
1
0
0
0
0
0
0
0
0
0
0
0
0
1
1
0
0
1
0
0
0
0
0
1
0
0
0
1
0
1
0
0
0
0
0
0
0
1
0
0
0
0
0
0
0
1
0
0
1
0
0
0
0
0
0
0
0
0
0
0
0
0
0
0
1
0
0
0
0
0
0
0
0
0
0
0
0
0
0
0
0
0
0
0
0
0
0
0
0
0
0
0
0
0
0
0
0
0
0
0
0
1
0
0
0
0
0
0
1
0
0
0
1
0
0
0
0
0
0
0
0
0
0
0
1
0
0
0
0
0
0
0
0
0
0
0
0
0
0
0
0
0
0
0
0
0
0
0
0
0
0
0
0
0
0
0
0
0
0
0
0
0
0
0
0
1
1
0
0
0
0
0
0
0
0
0
0
0
0
0
1
0
0
0
0
0
0
0
0
0
0
0
0
0
0
0
0
0
0
0
0
0
0
0
0
0
0
0
0
0
0
0
0
0
0
0
0
0
0
0
0
0
0
0
0
0
0
0
0
0
0
0
0
0
0
0
0
0
0
0
0
0
0
0
0
0
0
0
0
0
0
0
0
1
1
0
0
0
0
0
0
0
0
1
0
0
0
0
0
0
0
0
0
0
0
0
0
0
0
0
0
0
0
0
0
0
0
1
0
0
0
0
0
0
0
0
0
0
0
0
0
0
0
0
1
0
0
0
0
0
0
0
0
0
0
0
0
0
0
0
0
0
0
0
0
0
0
0
0
0
0
0
0
0
0
0
0
0
0
0
0
0
0
0
0
0
0
0
0
0
0
0
0
0
0
0
0
0
0
0
0
0
0
0
0
0
0
0
0
0
0
0
0
0
0
0
0
0
0
0
0
0
0
0
0
0
0
0
0
0
0
0
0
0
0
1
1
0
0
0
0
0
1
0
0
0
0
0
0
0
0
0
0
0
0
1
0
0
0
0
0
0
0
0
0
0
0
0
0
0
0
0
0
0
0
0
0
0
0
0
0
0
0
0
0
0
0
0
0
0
0
0
0
0
0
0
0
0
0
0
0
0
0
0
0
0
0
0
0
1
0
1
0
0
0
0
0
0
0
0
0
0
0
0
0
0
0
0
0
0
1
0
0
0
0
0
0
0
0
0
0
0
0
0
0
0
0
0
0
0
0
0
0
0
0
0
0
0
0
0
0
0
0
0
0
0
0
0
0
0
0
0
0
0
0
0
0
0
0
0
0
0
0
0
0
0
0
0
0
0
0
0
0
0
0
0
0
0
0
0
0
1
0
0
0
0
0
0
0
0
0
0
1
0
0
0
0
0
0
0
0
0
0
0
0
0
0
0
0
0
0
0
0
0
0
0
0
0
0
0
0
0
0
0
0
0
0
0
0
0
1
0
0
0
0
0
0
0
0
0
0
0
0
0
0
0
0
0
0
0
0
0
0
0
0
0
0
0
0
0
0
0
0
0
0
0
0
0
0
0
0
0
0
0
0
0
0
0
0
0
0
0
0
0
0
0
0
0
0
0
0
0
0
0
0
0
0
0
0
0
0
0
0
0
0
0
0
0
0
0
0
0
1
0
0
0
0
0
0
0
0
0
0
0
0
0
0
0
0
0
0
0
0
0
0
0
0
0
0
0
0
0
0
0
0
0
0
0
0
0
0
0
0
0
0
0
0
0
0
0
0
0
0
0
0
0
0
0
0
0
0
0
0
0
0
0
0
0
0
0
0
0
0
0
0
0
0
0
0
0
0
0
0
0
0
0
0
0
0
0
0
0
0
0
0
0
0
0
0
0
0
0
0
0
0
0
0
0
0
0
0
0
0
0
0
0
0
0
0
0
0
0
0
0
0
0
1
0
0
0
0
0
0
0
0
0
0
0
0
0
0
0
0
0
0
0
0
0
0
0
0
0
0
0
0
0
0
0
0
0
0
0
0
0
0
0
0
0
0
0
0
0
0
0
0
0
0
0
0
0
0
0
0
0
0
0
0
0
0
0
0
0
0
0
0
0
0
0
0
0
0
0
0
0
0
0
0
0
1
0
0
0
0
0
0
0
1
0
0
0
0
0
0
0
0
0
0
0
0
0
0
0
0
0
0
0
0
0
0
0
0
0
0
0
0
0
0
0
0
0
0
0
0
0
1
0
0
0
0
0
0
0
0
0
0
0
0
0
0
0
0
0
0
0
0
0
1
0
0
0
0
0
0
0
0
0
0
0
0
1
1
0
0
0
0
0
0
0
0
0
0
0
0
0
0
0
1
1
0
1
0
0
0
0
0
0
0
0
0
1
0
0
0
0
0
0
1
0
0
0
0
0
0
0
0
0
0
1
0
0
0
0
1
0
1
0
0
0
0
0
0
0
1
0
0
0
1
0
0
0
1
0
1
1
0
0
1
1
0
0
0
1
0
0
0
1
0
0
0
0
0
0
0
0
0
1
0
0
0
0
0
0
1
0
0
0
0
0
0
0
0
0
0
0
0
0
0
0
0
0
0
0
0
0
0
0
0
0
0
0
1
0
0
1
0
0
0
0
0
0
0
0
0
0
0
0
0
0
0
0
0
0
1
0
0
1
0
0
0
0
0
0
0
0
0
0
0
1
0
0
1
0
0
0
0
0
0
0
0
0
0
0
1
1
0
0
0
0
0
0
0
0
0
0
0
0
1
0
0
0
0
0
0
0
0
0
0
0
0
0
0
0
0
0
1
0
0
0
0
0
0
0
0
0
0
0
0
0
0
0
0
0
1
0
0
0
0
0
0
0
0
0
0
0
0
0
0
0
0
0
0
0
0
0
0
0
0
0
0
0
0
0
0
0
0
0
0
0
0
0
0
0
0
1
0
0
0
0
0
0
0
0
0
0
0
0
0
0
0
0
0
0
0
0
0
0
0
0
0
0
0
0
0
0
0
0
0
0
0
0
0
0
0
0
0
0
0
0
0
1
0
0
0
0
0
0
0
0
0
0
0
0
0
0
0
0
0
0
0
0
0
0
0
0
0
0
0
0
0
0
0
0
0
0
0
0
0
0
0
0
0
0
0
0
0
0
0
1
0
0
0
0
0
0
0
0
0
0
1
0
0
0
0
0
0
0
0
0
0
0
0
0
0
0
1
0
0
1
0
0
0
0
0
0
0
0
0
0
0
0
0
0
0
0
0
0
0
0
0
0
0
1
0
0
0
0
0
0
0
0
0
0
0
0
0
0
0
0
0
0
0
0
0
0
0
0
0
0
0
0
0
0
0
0
0
0
0
1
0
0
0
0
0
0
0
0
0
0
0
0
0
0
0
0
0
0
0
0
0
0
0
0
0
0
0
0
0
0
0
0
0
0
0
0
0
0
0
0
0
0
0
0
0
0
0
0
0
0
0
0
0
0
0
0
0
0
0
0
0
0
0
0
0
0
0
0
0
0
0
0
0
0
0
0
1
0
0
0
0
0
0
0
0
0
0
0
0
0
0
0
0
0
0
0
0
0
0
0
0
0
0
0
0
0
0
0
0
0
0
0
0
0
0
0
1
0
0
0
0
0
0
0
0
0
0
0
0
1
1
0
0
0
0
0
0
0
0
0
0
0
0
0
0
0
0
0
0
0
0
0
0
0
0
0
0
0
0
0
0
0
0
0
0
0
0
0
0
0
0
0
0
0
0
0
0
0
0
0
0
0
0
0
0
0
0
0
0
0
0
0
0
0
0
0
0
0
0
0
0
0
0
0
0
0
0
0
0
0
0
0
0
0
0
0
0
0
0
0
0
0
0
0
0
0
0
0
0
0
0
0
1
0
1
0
0
0
0
0
0
0
1
1
1
1
0
0
0
0
0
0
0
0
0
0
0
0
0
0
0
0
0
0
0
0
0
0
0
0
0
0
0
0
1
1
0
0
0
0
0
0
0
0
0
0
0
0
0
0
0
0
0
0
1
0
0
0
0
0
0
0
1
1
0
1
1
0
0
1
0
0
0
0
0
0
0
1
0
1
0
0
0
0
0
0
0
0
0
0
0
0
0
0
0
0
0
0
0
0
0
0
0
0
0
0
0
1
1
0
0
0
1
1
0
0
0
0
1
0
0
1
0
1
0
0
0
0
0
1
0
0
0
1
0
0
0
0
0
0
0
0
0
0
0
0
0
0
0
0
0
0
0
0
0
0
0
0
0
0
0
1
0
0
0
0
0
0
1
0
0
0
0
0
0
0
0
0
0
0
0
0
0
0
0
0
0
0
0
0
0
0
0
0
0
0
0
0
1
0
1
0
0
0
0
0
0
0
1
0
0
0
0
0
0
0
0
0
0
0
1
0
0
0
0
0
0
0
0
0
1
0
0
0
0
0
0
0
1
0
0
0
0
0
0
0
1
0
0
0
0
0
0
0
0
0
0
0
0
0
0
0
0
0
0
0
1
0
1
0
0
0
0
0
1
0
0
0
0
0
0
0
0
0
0
0
0
0
0
0
0
0
0
0
0
0
0
0
0
0
1
0
1
0
0
0
0
0
0
0
0
0
1
0
0
0
0
0
1
0
0
0
0
0
0
0
0
0
0
0
0
0
0
0
1
0
0
0
0
0
0
0
0
1
0
0
0
0
0
0
0
0
0
0
0
0
0
0
0
0
0
0
0
0
0
0
0
0
0
0
0
0
0
0
1
0
0
0
0
0
0
0
0
0
0
0
0
0
0
0
0
1
0
0
0
0
0
0
0
0
1
0
0
0
0
0
0
0
0
0
1
0
0
0
0
0
1
0
0
0
0
0
0
0
0
0
0
0
0
0
0
0
0
0
0
0
1
0
0
0
0
0
0
1
0
0
0
0
0
0
0
0
1
0
0
0
0
0
0
0
0
0
0
0
0
0
0
1
0
0
1
0
0
0
1
0
0
0
0
0
0
0
0
0
0
0
0
0
0
0
0
1
0
0
0
0
0
0
0
0
0
0
1
0
1
0
0
0
0
0
0
1
0
0
0
0
0
0
0
0
0
0
0
0
0
0
0
0
0
0
0
0
0
0
0
0
0
0
0
1
1
0
0
0
0
0
0
1
0
0
0
0
0
0
0
0
0
0
0
0
0
1
0
0
0
0
0
0
0
1
0
0
0
0
0
0
0
0
0
0
0
0
0
0
0
0
0
0
0
0
0
0
0
0
0
0
0
1
0
0
0
0
0
0
0
0
0
0
1
0
0
1
0
0
0
0
0
0
0
0
0
0
0
0
0
0
0
0
0
0
0
0
0
0
0
0
0
0
0
0
0
1
0
0
0
0
0
0
0
1
0
0
0
0
0
0
0
1
0
0
0
0
1
0
0
0
0
0
0
0
0
0
0
0
1
0
1
0
0
0
1
0
				</DataArray>
				<DataArray type="Float64" Name="h" NumberOfComponents="1" Format="ascii">
0.6556425161
0.6556299206
0.7390755343
0.7524191602
0.6938298914
0.7172780508
0.7198352423
0.6892808924
0.6981434986
0.6850863849
0.7385942077
0.7570422917
0.6425629228
0.7471678531
0.6690069980
0.6218540264
0.7736781233
0.6606638055
0.6445854654
0.7709772199
0.7636252092
0.6282418129
0.6425385898
0.6950566864
0.7692917277
0.6161685760
0.6259684859
0.6562897002
0.6521438137
0.7334156364
0.7658313103
0.6497372669
0.6221751581
0.7721833479
0.6993431718
0.6630966690
0.7476773542
0.6364011565
0.6553721562
0.7196620085
0.6614851593
0.6568694097
0.6306332934
0.6451904760
0.6765233874
0.6508487590
0.6404539714
0.6826747335
0.6740350370
0.6800597202
0.7636041553
0.6525599620
0.6494949370
0.6687058968
0.6599053793
0.6252992812
0.6538295507
0.6674671837
0.6608302457
0.6649227574
0.6175568697
0.6136961535
0.6703818847
0.6577821630
0.6466006872
0.6642921840
0.6822296713
0.6767461018
0.6461248819
0.6438243928
0.6597697526
0.6671524403
0.6325708389
0.6694173710
0.6647710225
0.6603731021
0.6643486357
0.6535923079
0.6825902683
0.6582632961
0.5748918593
0.6666585735
0.5948283633
0.6789327285
0.6499321529
0.6675477292
0.5684095152
0.6797627922
0.6632414222
0.6620617704
0.6293027563
0.6636277496
0.6403221206
0.6797775732
0.6716427809
0.6690107389
0.6799155229
0.6534469438
0.6598567487
0.5988565331
0.6374592168
0.5519179238
0.6735928612
0.6884833412
0.6642761033
0.6829166570
0.6769106932
0.6679094648
0.6597707704
0.6721120772
0.6822230385
0.6725704792
0.6501137439
0.6562542659
0.6741569034
0.5229883097
0.6734525924
0.6980067918
0.6026999403
0.6735294459
0.6863861343
0.6796693517
0.6714452594
0.7550547699
0.6644276803
0.6539633885
0.6733472636
0.7348701491
0.5153253431
0.5372110987
0.5587798838
0.6776362881
0.6715485819
0.5035650961
0.7300522203
0.5959438502
0.6110417049
0.5054014472
0.5237702922
0.6105000108
0.6979235603
0.7553133073
0.5304590424
0.6137887648
0.6737928633
0.5606807058
0.6092554520
0.5038692089
0.7272518319
0.5006533958
0.6100265451
0.5016743711
0.5023838760
0.5000954192
0.5312613781
0.5089229813
0.5003774495
0.6644167133
0.5004769816
0.7073027972
0.6066137293
0.5025413218
0.6046271592
0.6897437838
0.6890240400
0.5203348740
0.6197041967
0.6043364079
0.7501378614
0.5043802488
0.5005089586
0.7413407045
0.5001595706
0.6472094384
0.6192451563
0.5000068659
0.6114496360
0.5051162869
0.5000281519
0.6678552746
0.5180886382
0.6294932945
0.6852322164
0.6787633932
0.7476687341
0.7369320147
0.6279798326
0.5000773821
0.7411400545
0.7261514213
0.6415483902
0.5000336726
0.7010183227
0.6379944673
0.5000121137
0.5116552783
0.6310366679
0.6559289575
0.6495059906
0.5001448462
0.7320576941
0.6820870176
0.7304310301
0.5001018951
0.6706380502
0.6306993869
0.5971492682
0.6025386312
0.6630835775
0.6043009444
0.6345775393
0.7187768584
0.6306027584
0.6313145815
0.5986091053
0.6495021383
0.5997871633
0.6190123332
0.6218695035
0.6619588431
0.6755557672
0.6829780511
0.6116234218
0.6908967892
0.6894996240
0.5010129448
0.6026420951
0.6928668318
0.6841450629
0.6673112481
0.5003351415
0.6882551198
0.6920949365
0.5002009714
0.5060092295
0.6926260292
0.6399972073
0.5835461574
0.6598518315
0.5917480883
0.6310515765
0.5887283431
0.6097052712
0.6015171991
0.5956693754
0.5923654945
0.6191781820
0.6242700694
0.5849808237
0.6012294150
0.5857605135
0.6141456198
0.6090797545
0.6582665001
0.6499142554
0.6115448447
0.5958047876
0.5924833824
0.6313158081
0.6903701414
0.6008336170
0.6961247886
0.6993208662
0.6967248615
0.6916343155
0.5143172503
0.5028745748
0.6804519608
0.5004415094
0.6901970181
0.6533829561
0.6112148973
0.6780077364
0.6931589990
0.6924047121
0.6904222825
0.6987320983
0.6985112283
0.6939242441
0.6876318133
0.6500554278
0.5005896825
0.5025391276
0.5159348193
0.6812087387
0.6870054394
0.6931030498
0.5659304608
0.6016629426
0.5938801863
0.5775284051
0.6408651219
0.5731360388
0.5814997301
0.5751352809
0.6288634641
0.5885602690
0.5681826198
0.5863078562
0.6115511159
0.5961589101
0.5780202286
0.6186409055
0.6520638022
0.6610695567
0.5676092630
0.6052635395
0.5812137128
0.5935014526
0.7030924167
0.6996044538
0.7061871578
0.5012742183
0.6866815243
0.6747279160
0.6960026483
0.5873132197
0.6877435915
0.5076045550
0.6012869963
0.7028567581
0.6982661770
0.6960696990
0.5351166301
0.7057735925
0.6998071152
0.7050853985
0.5069993236
0.6982569209
0.6928670374
0.6717366767
0.5373897625
0.5016447236
0.6977701082
0.6997942439
0.6941968877
0.6905698406
0.5581535871
0.5760080093
0.5550630083
0.6280822292
0.5727268068
0.5867829188
0.6410957687
0.5535850027
0.5429299910
0.5643064553
0.5786938374
0.6994848259
0.7293620754
0.6568207896
0.7211242739
0.5593978080
0.5785227102
0.6836297257
0.5449472491
0.7363153801
0.5982420932
0.5627382837
0.7187644991
0.7113809527
0.5804794225
0.5961677994
0.6137461442
0.6654445778
0.5465880822
0.7211086009
0.7311737915
0.7276333379
0.5812421451
0.7310018316
0.7110848607
0.5703718659
0.5184413526
0.7020293765
0.7093087974
0.5728285431
0.4917272782
0.6880249497
0.7103978047
0.6940032513
0.6944149085
0.5034685186
0.5725721943
0.7017895767
0.5900392885
0.7055987388
0.7065066206
0.7132518939
0.4910109627
0.5043238456
0.7043848350
0.7047545699
0.7015649755
0.5749002924
0.7058518531
0.4671766121
0.4321528643
0.4380765091
0.6357384747
0.7129889780
0.6856184111
0.5886577682
0.6986079757
0.6722165401
0.5176261558
0.6970893028
0.7016469250
0.7069625728
0.5370912018
0.7118603782
0.7265894007
0.7105704176
0.7366111154
0.5335943099
0.6825723593
0.7006147093
0.5557013314
0.7165452879
0.7213989287
0.7314204378
0.7119285837
0.5424992089
0.7060832400
0.6668266299
0.7183190053
0.5760967889
0.5710106683
0.7168345025
0.6436573511
0.7293105649
0.6703998239
0.7270737572
0.7053603318
0.7341367549
0.7248819666
0.7204747882
0.7058047512
0.6656843021
0.7377913662
0.7446111959
0.7421868862
0.5356616544
0.7285690011
0.7418165818
0.5401067837
0.7219493460
0.7484914783
0.7148478627
0.7219405934
0.7324777881
0.5204981314
0.5812513880
0.7178978893
0.6129571506
0.7119265864
0.6897282474
0.7102062069
0.7402219279
0.7071460644
0.5613478299
0.6714827449
0.5058181382
0.5087969240
0.5804380908
0.7083987790
0.7207561084
0.7133546309
0.6759057327
0.5155725433
0.6229541356
0.5414701721
0.7001851485
0.6139228734
0.7025474946
0.7136409832
0.7228975813
0.5179299670
0.5524977760
0.4774628009
0.4591055521
0.6779623317
0.5067625560
0.5394587473
0.7280424358
0.7188198923
0.6942837812
0.4421320717
0.7115304048
0.4292010612
0.7528367122
0.7099006910
0.7788893505
0.5404869823
0.4671797693
0.4579017896
0.5167509942
0.7222050703
0.7045243684
0.4361249575
0.7446805627
0.7307513725
0.4709410369
0.4380779653
0.6357374686
0.5770133948
0.7144104457
0.5644740029
0.7013616182
0.7542226059
0.4421306646
0.6483323438
0.7459690249
0.5414696021
0.7423423848
0.5525025531
0.7373217184
0.7428074355
0.5414253784
0.5203637512
0.6483369309
0.7425309822
0.7494488502
0.5493036777
0.4841025817
0.7266322512
0.4195912554
0.7458169829
0.7276945457
0.6426627682
0.7275741522
0.5058147403
0.7364962541
0.4997669372
0.5155701499
0.6387145481
0.5404890727
0.5167494609
0.5644823219
0.7276931118
0.6779681829
0.5714572840
0.4257881549
0.5538537653
0.4452560906
0.4940621341
0.4393126632
0.6139256678
0.4943626081
0.4304547789
0.6961445484
0.4281960031
0.4880623378
0.7105110983
0.5287651215
0.7291988617
0.6760248943
0.4331431763
0.7159557402
0.7038978681
0.6027425833
0.4255184616
0.7102162994
0.5067585522
0.6818822974
0.7058113991
0.5770139772
0.7207632643
0.7520783490
0.5205003235
0.5596512650
0.7520622969
0.7368640577
0.7495209677
0.7214098487
0.5178773506
0.7119743274
0.7508914342
0.7459702969
0.6138555750
0.4783155834
0.7148443418
0.7446804298
0.3932473694
0.7545549760
0.4682334713
0.6657730969
0.7105663122
0.7219600867
0.4641410741
0.5761987709
0.6169338472
0.4413028230
0.6835010141
0.4645094024
0.7179076481
0.6549059545
0.5323182232
0.7443108800
0.5799738024
0.7059040485
0.5665330229
0.7165955030
0.4572380524
0.7183219578
0.4245376574
0.4274137225
0.7243334792
0.7006497413
0.4053656538
0.4019955297
0.4852326773
0.7303111925
0.4442796808
0.7508908179
0.4565652896
0.7533389568
0.4997668310
0.5596534159
0.6426647509
0.4841011956
0.6494997953
0.7408967683
0.5025492132
0.5414299284
0.5182567871
0.5912869337
0.7295754328
0.5287679817
0.5060893270
0.4274143918
0.5702199348
0.4652201061
0.6760264893
0.5203651801
0.6027449190
0.4880607597
0.7399585692
0.7265475518
0.7468425695
0.7549513444
0.5538613756
0.3997328072
0.5303198764
0.6273881843
0.7785464920
0.7358624719
0.7105103801
0.4109236768
0.7198830716
0.7434424629
0.4936437564
0.5050787259
0.4540977934
0.8299265968
0.5829692724
0.6649804315
0.4940620021
0.7442743951
0.4632722979
0.5213191776
0.4691695612
0.7503844720
0.7349720175
0.7370826995
0.7469529534
0.6132186164
0.5362575355
0.4875031938
0.4492605302
0.7530009828
0.8617474380
0.6387139764
0.4258314977
0.5481079280
0.5421652033
0.7408280703
0.6009816805
0.5533853105
0.9029312479
0.7362176132
0.4924960010
0.4221407398
0.7394344361
0.4190745286
0.4449702840
0.6832743126
0.7319814064
0.7790185465
0.7303968170
0.4264743459
0.4259202488
0.6876076597
0.5593142742
0.5440742522
0.7343033245
0.7311878413
0.7420906370
0.7385713208
0.8034538890
0.7395159687
0.8255608873
0.5650403443
0.7265524105
0.7310248957
0.4053679799
0.9173517973
0.4281980675
0.7430808685
0.4186678238
0.4185230834
0.8908721496
0.4442822260
0.7873434620
0.8863757302
0.4255202586
0.7863180341
0.4137358637
0.3700938303
0.7274641720
0.8150086529
0.4538431874
0.6591088281
0.6754019579
0.6753685928
0.6590712173
0.7443953532
0.7570589949
0.7386183880
0.7058527310
0.6742471945
0.7173140988
0.6937905949
0.6742031486
0.6981152185
0.6690239182
0.7198739293
0.7039278850
0.7058278423
0.7443678710
0.6546082548
0.6606612969
0.7523965060
0.7390497485
0.6446154495
0.7334259596
0.6312675859
0.7692501386
0.6892689521
0.6161800633
0.7692992795
0.6850921711
0.6337910245
0.6425462683
0.7446249511
0.6169381140
0.6387185542
0.7039159404
0.7658405721
0.6546076823
0.7721759694
0.6222210828
0.6497925965
0.6195699028
0.7197018086
0.6505796268
0.7736850623
0.6218293663
0.6307039496
0.6554181843
0.7692531439
0.6312610608
0.6615241254
0.7471486983
0.7709727570
0.7445984704
0.6424790560
0.6717675595
0.6282061555
0.7237311183
0.6337704701
0.7636211975
0.6386677656
0.6326762014
0.6592151323
0.6826416325
0.6169053122
0.6765638810
0.7636121047
0.6405150321
0.6562457913
0.6950108722
0.6520992320
0.6538719535
0.6458903412
0.6258971890
0.6969534178
0.6429802590
0.6505117047
0.6594238843
0.7220346474
0.6195149591
0.6495226619
0.6715194912
0.6788721931
0.6735360375
0.6326209155
0.7236901913
0.6778812210
0.6591979351
0.6630572962
0.6467246248
0.6363215927
0.6654901757
0.6994043571
0.6703240394
0.6766909715
0.6607821952
0.7476530270
0.6578130444
0.6594161405
0.6646385996
0.6637039607
0.6451456389
0.6693979616
0.6647737672
0.6671778187
0.6326542552
0.6564820916
0.6410873269
0.6439529821
0.6969148607
0.5944052641
0.7219977189
0.6568560421
0.6643947364
0.6597484824
0.6683497818
0.6647367735
0.6458121893
0.6367206297
0.6461859760
0.7435297476
0.6429841812
0.6438061584
0.6778440971
0.6654536077
0.6632667109
0.6607751585
0.6772165974
0.6632744504
0.6820511499
0.6741170951
0.6525242365
0.6735828390
0.6507931286
0.6666661181
0.6788876334
0.6627450068
0.6789339521
0.6801153881
0.6175893398
0.6137047247
0.6366310682
0.6111762360
0.6683726352
0.6609112673
0.6623297026
0.6647839075
0.6542299566
0.6337445561
0.6645590993
0.7434978970
0.6609141447
0.6598856989
0.6559714988
0.6564690470
0.5944293076
0.6252231337
0.6672802657
0.6629341688
0.6410104041
0.6687200148
0.6637439240
0.6649399506
0.6636549861
0.6674048604
0.6438727206
0.6402747906
0.6772612753
0.6884971074
0.6598817227
0.6627480361
0.6435249792
0.6632631267
0.5519232810
0.6840494151
0.6346886470
0.6784646171
0.6642776027
0.6371398509
0.6822713408
0.7117385352
0.6535156522
0.5649450230
0.6690088350
0.6638067356
0.6820912701
0.5988011509
0.6828914744
0.6632610429
0.5518972758
0.6672812054
0.6597336359
0.6724374404
0.6112273448
0.6630011683
0.6500416930
0.6609097506
0.6603326954
0.6848206083
0.6623433072
0.6535909261
0.6336642956
0.5966961570
0.6541720873
0.6821918999
0.6721184662
0.6559191421
0.6347603495
0.5521060614
0.6687180843
0.5649493873
0.6675520486
0.6796542414
0.6679404848
0.7117063189
0.6429847555
0.6638127002
0.6784962705
0.6498609287
0.6582264730
0.5684250924
0.5952428309
0.5749222040
0.6734378718
0.6826920471
0.6840817365
0.6863758230
0.6797901752
0.6434501537
0.5967535666
0.6776523901
0.6852982725
0.6288952498
0.6537960220
0.6584782477
0.6380160892
0.6632751783
0.6716387361
0.6798282218
0.5662313647
0.6623253365
0.6293844580
0.6494789880
0.6671593014
0.6643880961
0.6733249728
0.6848254331
0.5371365629
0.6736024089
0.5789629746
0.6870488957
0.6687311868
0.6429908468
0.6679640226
0.6617680137
0.7300525333
0.5958353515
0.6715224906
0.6642856230
0.6799169213
0.6738020615
0.6868839649
0.7553242213
0.6698390817
0.6288982354
0.5663704345
0.6563136169
0.6680439897
0.6201646657
0.6671495061
0.6380945032
0.6741833502
0.7272519766
0.6853071678
0.5304191043
0.7494843518
0.5230231722
0.6585278319
0.5606300393
0.6496144432
0.6768929263
0.7390659178
0.6670051272
0.6877997036
0.5011642620
0.5791463945
0.6618290082
0.6190079683
0.5069084782
0.6261913922
0.5386696241
0.6735600073
0.6870474342
0.5016748358
0.6980055996
0.5349139131
0.6028187116
0.7424618076
0.6100298188
0.5023819207
0.5312692617
0.6201549079
0.7494713466
0.6043547530
0.6890136559
0.6698748193
0.5010354401
0.7390605642
0.7239077768
0.5016747075
0.6876059196
0.6868879779
0.7550395811
0.5153357242
0.6066550919
0.7059613800
0.6714211753
0.5588362878
0.7607437773
0.6046311757
0.5174662505
0.5025351313
0.7348630328
0.5004761186
0.5386772132
0.6110398228
0.5035650090
0.5020113940
0.6867613771
0.6264715473
0.5106778326
0.5054064668
0.5001594892
0.7660044673
0.6301952633
0.5237654146
0.7424529428
0.6877872629
0.6190084115
0.5011644418
0.6669823647
0.5349282711
0.5043711456
0.5096681917
0.5069125084
0.5005090047
0.6471987637
0.5006547314
0.6852313026
0.6855914173
0.7059640068
0.7239065648
0.5449403649
0.5009246215
0.5001872690
0.6137272379
0.5038795810
0.6092369276
0.6678485648
0.5016792532
0.7607357650
0.6876008732
0.6643734164
0.6979269936
0.5180385129
0.5174738779
0.6115083030
0.5129337913
0.6104598810
0.5010372864
0.7092107356
0.7411515442
0.5089426853
0.5003776486
0.6301980213
0.6857056444
0.5020139407
0.7605017604
0.7660000914
0.6867595684
0.7476847014
0.5106946099
0.5000954403
0.6644267560
0.5096673878
0.6280454478
0.6835337945
0.5000121090
0.6196326129
0.7092116060
0.5450984336
0.5116115919
0.6643742959
0.5001875066
0.5129299218
0.5094398558
0.7233825517
0.5009257097
0.6855837976
0.7285959667
0.5000336628
0.5048806687
0.6897488240
0.5203968799
0.6380521694
0.5020699251
0.7072998064
0.6821156985
0.5000200538
0.7413258903
0.7304434996
0.6191824343
0.5001017899
0.6856847618
0.7501217914
0.7320732638
0.7604926954
0.6495491418
0.5000438614
0.5000281705
0.6474284086
0.7233766058
0.7285906545
0.7187860093
0.5020756675
0.5094728678
0.6461101372
0.5265279923
0.6294372918
0.5048793080
0.5000068689
0.6835016006
0.6958793407
0.7108369102
0.5051359208
0.6306026348
0.6631100112
0.6415048837
0.5003347156
0.5000200575
0.7261364673
0.5000438722
0.5002709667
0.5000651673
0.6787309203
0.7369172111
0.5000774565
0.6755838144
0.6191771841
0.5923852058
0.6187940501
0.5956714928
0.6559005034
0.7108254655
0.6651933402
0.6814450818
0.6015606149
0.6094700948
0.6474335153
0.6400203084
0.7010128230
0.6767533326
0.5266627891
0.6310401196
0.6440161348
0.5924881426
0.6012654210
0.6582806888
0.5958423688
0.6090829081
0.6243026683
0.6958692440
0.6598564071
0.6461123162
0.5008589711
0.6750465710
0.6706189996
0.5002713616
0.6870305637
0.6112553802
0.5000651471
0.6924410449
0.6876735262
0.5025323125
0.6495647808
0.5305033955
0.6931336434
0.6804839842
0.6779364002
0.5001448168
0.6903929275
0.6916603597
0.5004418203
0.5614669206
0.5142412698
0.6932014506
0.6345450609
0.5775481948
0.5941702428
0.6619578547
0.5885874759
0.6408716871
0.6094644678
0.6651751647
0.6187913155
0.6447918295
0.6690095446
0.5815042039
0.6016608059
0.6814416551
0.6042484528
0.6025315728
0.5971312821
0.6307010767
0.6218270349
0.5780315746
0.5935058030
0.6767473817
0.5812417732
0.6186580980
0.6190128010
0.6494745790
0.6610624233
0.5867502826
0.6200761932
0.5997473572
0.6012572811
0.5986041598
0.6440158929
0.6882356681
0.6013107954
0.6805871036
0.6942246912
0.6998381757
0.6983198892
0.6920690887
0.5618502221
0.5060314433
0.5069733228
0.6841231679
0.5002008031
0.5670915657
0.6929047845
0.6715690013
0.6115726523
0.5008605999
0.6675429399
0.6925875620
0.6908742783
0.6866810272
0.6982931273
0.6996613373
0.6960494601
0.6894792653
0.6031151284
0.5306632550
0.5012751096
0.6750424107
0.5010144661
0.5349015535
0.6877674603
0.6135320256
0.6829888315
0.6928327849
0.5581697836
0.5793027407
0.6097087298
0.6447905996
0.5867797421
0.5835265049
0.6310323498
0.6747287169
0.5643154204
0.6690090968
0.5887250279
0.5727420690
0.6410889714
0.5917111589
0.5941640872
0.5594106197
0.5785242071
0.6200808697
0.6028626853
0.5849724006
0.6141192909
0.6654243848
0.5710085246
0.6499046385
0.5867462343
0.5627559208
0.6137509254
0.5857278430
0.6012274830
0.7016257525
0.6984494843
0.7069779959
0.5005889139
0.6904053615
0.6855855758
0.6938903681
0.5900511926
0.6812509378
0.6140961879
0.6182380764
0.5175559130
0.6872828154
0.6008008400
0.7048178342
0.6987043782
0.6986543009
0.5160139004
0.7056016503
0.6992793653
0.7065406355
0.5028812698
0.6806001239
0.6605050891
0.6966747973
0.6901643834
0.6537968146
0.5724732850
0.5034697004
0.6939811523
0.7020914062
0.6960886763
0.6944478883
0.5674774356
0.6825452810
0.7293020761
0.6821228633
0.7165307547
0.5659125522
0.5792992565
0.6236606464
0.7010921341
0.5557076644
0.7331400383
0.6436470908
0.5751114413
0.7237336197
0.7060402235
0.6234682952
0.5938843704
0.6288594679
0.6747530763
0.5425060057
0.5336040223
0.5731293868
0.7265841312
0.7257514300
0.7248738301
0.5710063222
0.7310347198
0.7132773631
0.5619114499
0.6929040969
0.7271814213
0.6714692089
0.7180141421
0.5681698115
0.5863068022
0.5431153903
0.6953700534
0.5401152717
0.7332965594
0.6129551612
0.5675859625
0.7222579004
0.7080731668
0.5493190241
0.6028703335
0.6052503528
0.6520738127
0.5517028377
0.5356699440
0.5710046344
0.7189284064
0.7347496767
0.7250657360
0.5879191243
0.7278772965
0.7076612743
0.5613470518
0.5230222824
0.5393419177
0.6939113883
0.6997454736
0.6787183262
0.6631082270
0.7115555647
0.5375788055
0.4774596524
0.4647417294
0.4317949342
0.6942677015
0.4291993440
0.5866531283
0.7098797088
0.6608116930
0.6977873633
0.6255166568
0.6905518724
0.6986593885
0.5016422848
0.5804421196
0.7045624735
0.5872933581
0.7057573698
0.7050335285
0.4767075620
0.7144060691
0.4709391008
0.5087967628
0.7025286847
0.7027940972
0.7059056749
0.6226680402
0.7084411106
0.6187043804
0.4951278283
0.4810660449
0.4202327324
0.6783215278
0.4219628516
0.6342067983
0.7133386342
0.6748679529
0.6873084400
0.5799734409
0.6960322684
0.6759070175
0.5076273177
0.7002051432
0.7030899425
0.7061629430
0.5179283392
0.7136458385
0.7246512361
0.7228014853
0.7075369244
0.6802050950
0.7428081057
0.7331456542
0.7425276849
0.7410316393
0.5429176341
0.6667101651
0.7336194572
0.6964447671
0.6666532306
0.7368246591
0.5550497099
0.7132620568
0.7203253831
0.7257510055
0.7269526736
0.7089453996
0.7435939651
0.5535782875
0.7026651896
0.6234724066
0.7157698113
0.7159429177
0.7132448274
0.7275620499
0.5400747417
0.5786983188
0.7119125766
0.7133021138
0.6280881735
0.7211096894
0.7314221356
0.6961558824
0.7038920447
0.7269582533
0.7364890799
0.6881629379
0.7237447574
0.7011215167
0.7114687740
0.5619089541
0.6821467553
0.7310416625
0.7220371097
0.6668261305
0.7293697261
0.7167800334
0.7027079381
0.7168160707
0.6239831114
0.7320427789
0.7311769847
0.7387904438
0.7377128614
0.5465784843
0.6236888656
0.7323128020
0.6911551625
0.7478689480
0.5449327369
0.7114049653
0.7202428050
0.7165615506
0.7165637551
0.7430828052
0.5516994878
0.6995306921
0.6836357117
0.7119917261
0.7182270429
0.7289672684
0.5106062241
0.5879277728
0.7177637709
0.7341296895
0.7187818507
0.5982391235
0.7089450418
0.6495243387
0.7066889127
0.7276411270
0.7363564059
0.6315630015
0.7278857622
0.7076988746
0.7106599797
0.5703726697
0.6568396465
0.7333030158
0.7211325999
0.5147032826
0.5043182500
0.7303089780
0.7165929290
0.6784147463
0.5725628096
0.4591075388
0.7058069413
0.4219645807
0.7520628568
0.7186094509
0.7129893903
0.6722149550
0.7443218228
0.5404352864
0.4647447141
0.5290522657
0.5751589895
0.4486225542
0.5348545623
0.7198821534
0.6970765120
0.4329931149
0.7444693890
0.7245442720
0.5230236610
0.4321542189
0.6680884967
0.6680868755
0.5970717247
0.7044003351
0.7118429548
0.7205366456
0.5370923093
0.6394786868
0.5616175034
0.4917310996
0.7119696933
0.7491798651
0.4485462242
0.4267558920
0.6652304117
0.4504995505
0.7418297726
0.5195130934
0.5184921944
0.7243314755
0.7158113608
0.6880691006
0.4562153199
0.7092685279
0.4202341459
0.7470377690
0.7104130208
0.6394779115
0.7785736127
0.5514783096
0.4810699433
0.5277744308
0.6633448479
0.4413010114
0.5197618055
0.7228017445
0.7017580926
0.4485484558
0.7405670237
0.7268697664
0.4910124314
0.4317959795
0.6342061734
0.4763660571
0.5615904646
0.6939278988
0.7132458817
0.7371649666
0.4767096492
0.5721464511
0.4951322483
0.4398234527
0.6917966864
0.7489320625
0.4745439423
0.4329915075
0.6329644627
0.7415473472
0.6792520103
0.5404352099
0.5348505704
0.7368232876
0.5616220051
0.7336274571
0.7377898401
0.6918063783
0.4549082995
0.7373927588
0.4244646417
0.5304400863
0.4117253164
0.6970977939
0.5359618646
0.7384832838
0.4401734490
0.6329719872
0.5630292684
0.7384888319
0.7250707811
0.7435942495
0.4229880836
0.7026117993
0.5431149033
0.7423434306
0.7189336491
0.6971014247
0.4495168569
0.4795485167
0.7228133082
0.7081050078
0.7311050811
0.4282635887
0.7246429683
0.5144694446
0.7410358436
0.7310105223
0.7225026277
0.7115422458
0.7053327503
0.7019766090
0.4390102225
0.5760481752
0.7146944365
0.7347499711
0.7239136219
0.7068578756
0.6560229534
0.4183897564
0.7239272427
0.7123692526
0.5146968670
0.6350862532
0.7331323781
0.4846291812
0.5290499700
0.7111083271
0.6241051848
0.5514804046
0.5197555632
0.7269567395
0.5721548453
0.7377190223
0.7225008011
0.7458147903
0.6652396941
0.5331466775
0.7446121330
0.4157996890
0.5446219214
0.4221388885
0.4991551159
0.4265367132
0.5970738817
0.4532725859
0.7366083032
0.7402272557
0.7418156974
0.4185211411
0.5804679396
0.7266214256
0.6881544031
0.4170566106
0.4757271217
0.7285794910
0.7118123837
0.4103133187
0.5155155425
0.7430850013
0.7068628289
0.7269578775
0.7321273175
0.6858304483
0.4186656060
0.7167912404
0.7071486891
0.6192470755
0.4154302308
0.7219539131
0.7114762844
0.5195086028
0.6801505825
0.7324870003
0.4994834158
0.5277739233
0.7027192616
0.5615893323