<VTKFile type="UnstructuredGrid" version="0.1">
	<UnstructuredGrid>
		<Piece NumberOfPoints="1862" NumberOfCells="3498">
			<CellData>
				<DataArray type="Int32" Name="type" NumberOfComponents="1" Format="ascii">
0
0
0
0
0
0
0
0
0
0
0
0
0
0
0
0
1
0
0
1
0
0
0
0
0
0
0
0
0
0
0
0
0
1
0
0
0
0
0
0
0
0
0
0
0
0
0
0
0
0
1
0
0
0
0
0
0
0
0
0
0
1
0
0
0
0
0
0
0
0
0
0
0
0
0
0
0
0
0
0
0
0
0
0
0
0
0
0
0
0
0
0
0
0
0
0
0
0
0
0
0
0
0
0
0
0
0
0
0
0
0
0
0
0
0
0
0
0
0
0
0
0
0
1
0
0
0
0
0
0
0
0
0
0
0
0
0
0
0
0
0
0
0
0
0
0
0
0
0
0
0
1
0
1
1
0
0
0
0
0
0
0
0
0
0
0
0
0
1
0
1
0
0
0
0
1
0
0
0
0
0
0
0
0
1
1
0
0
0
0
0
1
0
0
0
0
0
0
0
0
1
0
0
0
0
0
0
0
0
0
0
0
0
0
0
0
0
0
0
0
0
0
0
0
0
0
0
0
0
0
0
0
0
1
0
0
0
0
0
0
0
0
0
0
0
0
0
0
0
0
0
0
0
0
0
0
0
0
0
0
0
0
0
0
0
0
0
0
0
0
0
0
0
0
0
0
0
0
0
0
0
1
0
0
0
0
0
0
0
0
0
0
0
0
0
0
0
0
0
0
0
0
0
0
0
0
0
0
0
0
0
0
0
0
0
0
0
0
0
0
0
0
0
0
0
0
0
0
0
0
0
0
1
0
0
0
0
0
0
0
0
0
0
0
0
0
0
0
0
0
0
0
0
0
0
0
0
0
0
0
0
0
0
0
0
0
0
0
0
0
0
0
0
0
0
0
0
0
0
0
0
0
0
0
0
0
0
0
0
0
1
0
0
0
0
0
0
0
0
0
0
0
0
0
0
0
0
0
0
0
0
0
0
0
0
0
0
0
0
0
0
0
0
0
0
0
0
0
0
0
0
0
0
0
0
0
0
0
0
0
0
0
0
0
0
0
0
0
0
0
0
0
0
0
0
0
0
0
0
0
0
0
0
0
0
0
0
0
0
0
0
0
0
0
0
0
0
0
0
0
0
0
0
0
0
0
0
0
0
0
0
0
0
0
0
0
0
0
0
0
0
0
0
0
0
0
0
0
0
0
0
0
0
0
0
0
0
0
0
0
0
0
0
1
0
0
0
0
0
0
0
0
0
0
0
0
0
0
0
0
0
0
0
1
0
0
0
0
0
0
0
0
0
0
0
0
0
0
0
0
0
0
0
0
0
0
0
0
0
0
0
0
0
0
0
0
0
0
0
0
0
0
0
0
0
0
0
0
0
0
0
0
0
0
0
0
0
1
0
0
0
0
0
0
0
0
0
0
0
0
0
0
0
0
0
0
0
0
0
0
0
1
0
0
0
0
0
0
0
0
0
0
0
0
0
0
0
0
0
0
0
1
0
0
0
1
0
0
0
0
0
0
0
0
0
0
0
0
0
0
0
0
0
0
0
0
0
0
0
0
0
1
0
0
0
0
0
0
0
1
0
0
0
0
0
0
0
0
0
0
0
0
0
0
0
0
0
0
0
0
0
0
0
0
0
0
1
0
0
0
0
0
0
0
1
0
0
0
0
0
0
1
0
0
0
0
0
0
0
0
0
0
0
0
0
0
0
0
0
0
0
0
0
0
0
0
0
0
0
0
0
0
0
0
0
0
0
0
0
0
1
0
0
0
0
0
1
0
0
0
0
0
0
0
1
0
0
0
0
0
0
0
0
0
0
0
0
0
1
0
0
0
0
0
0
0
0
0
0
0
0
0
0
0
0
0
0
0
0
0
0
0
0
0
0
0
0
0
0
0
0
0
0
0
0
0
0
0
0
0
0
0
0
0
0
0
0
0
0
0
0
0
1
0
0
0
0
0
0
0
0
0
0
0
0
0
0
0
0
0
0
0
1
0
0
0
0
0
0
0
0
0
1
0
0
0
0
0
0
0
0
0
0
0
0
0
0
0
0
0
0
0
0
0
0
0
0
0
0
0
0
0
1
0
1
0
0
0
0
0
0
0
0
0
0
0
0
0
0
0
0
0
0
0
0
0
0
0
0
0
0
0
1
0
0
0
1
0
0
0
0
0
0
0
0
0
0
0
0
0
0
0
0
0
0
0
0
0
0
0
0
0
0
0
0
1
0
0
0
0
0
0
0
0
0
0
0
0
0
0
0
0
0
0
0
0
0
0
0
0
0
1
0
0
0
0
0
0
0
0
0
0
0
0
0
0
0
0
0
0
0
0
0
0
0
1
0
0
0
0
0
0
1
0
0
0
0
0
0
0
0
0
0
0
1
0
0
0
0
0
0
0
0
0
0
0
0
0
0
0
0
0
0
0
0
1
0
0
0
0
0
0
0
0
0
0
0
1
0
0
0
0
0
0
0
0
0
0
0
0
0
0
0
0
0
0
0
0
0
1
0
0
0
0
0
0
0
0
0
1
1
0
1
0
1
0
0
0
0
0
0
0
0
0
0
0
1
0
0
0
0
0
1
1
0
0
0
0
0
0
1
0
0
0
0
0
1
1
1
0
0
0
0
0
0
0
0
0
0
0
0
1
1
0
0
1
0
0
0
0
0
1
0
0
0
1
0
1
0
0
0
0
0
0
0
1
0
0
0
0
0
0
0
1
0
0
1
0
0
0
0
0
0
0
0
0
0
0
0
0
0
0
1
0
0
0
0
0
0
0
0
0
0
0
0
0
0
0
0
0
0
0
0
0
0
0
0
0
0
0
0
0
0
0
0
0
0
0
0
1
0
0
0
0
0
0
1
0
0
0
1
0
0
0
0
0
0
0
0
0
0
0
1
0
0
0
0
0
0
0
0
0
0
0
0
0
0
0
0
0
0
0
0
0
0
0
0
0
0
0
0
0
0
0
0
0
0
0
0
0
0
0
0
1
1
0
0
0
0
0
0
0
0
0
0
0
0
0
1
0
0
0
0
0
0
0
0
0
0
0
0
0
0
0
0
0
0
0
0
0
0
0
0
0
0
0
0
0
0
0
0
0
0
0
0
0
0
0
0
0
0
0
0
0
0
0
0
0
0
0
0
0
0
0
0
0
0
0
0
0
0
0
0
0
0
0
0
0
0
0
0
1
1
0
0
0
0
0
0
0
0
1
0
0
0
0
0
0
0
0
0
0
0
0
0
0
0
0
0
0
0
0
0
0
0
1
0
0
0
0
0
0
0
0
0
0
0
0
0
0
0
0
1
0
0
0
0
0
0
0
0
0
0
0
0
0
0
0
0
0
0
0
0
0
0
0
0
0
0
0
0
0
0
0
0
0
0
0
0
0
0
0
0
0
0
0
0
0
0
0
0
0
0
0
0
0
0
0
0
0
0
0
0
0
0
0
0
0
0
0
0
0
0
0
0
0
0
0
0
0
0
0
0
0
0
0
0
0
0
0
0
0
0
1
1
0
0
0
0
0
1
0
0
0
0
0
0
0
0
0
0
0
0
1
0
0
0
0
0
0
0
0
0
0
0
0
0
0
0
0
0
0
0
0
0
0
0
0
0
0
0
0
0
0
0
0
0
0
0
0
0
0
0
0
0
0
0
0
0
0
0
0
0
0
0
0
0
1
0
1
0
0
0
0
0
0
0
0
0
0
0
0
0
0
0
0
0
0
1
0
0
0
0
0
0
0
0
0
0
0
0
0
0
0
0
0
0
0
0
0
0
0
0
0
0
0
0
0
0
0
0
0
0
0
0
0
0
0
0
0
0
0
0
0
0
0
0
0
0
0
0
0
0
0
0
0
0
0
0
0
0
0
0
0
0
0
0
0
0
1
0
0
0
0
0
0
0
0
0
0
1
0
0
0
0
0
0
0
0
0
0
0
0
0
0
0
0
0
0
0
0
0
0
0
0
0
0
0
0
0
0
0
0
0
0
0
0
0
1
0
0
0
0
0
0
0
0
0
0
0
0
0
0
0
0
0
0
0
0
0
0
0
0
0
0
0
0
0
0
0
0
0
0
0
0
0
0
0
0
0
0
0
0
0
0
0
0
0
0
0
0
0
0
0
0
0
0
0
0
0
0
0
0
0
0
0
0
0
0
0
0
0
0
0
0
0
0
0
0
0
1
0
0
0
0
0
0
0
0
0
0
0
0
0
0
0
0
0
0
0
0
0
0
0
0
0
0
0
0
0
0
0
0
0
0
0
0
0
0
0
0
0
0
0
0
0
0
0
0
0
0
0
0
0
0
0
0
0
0
0
0
0
0
0
0
0
0
0
0
0
0
0
0
0
0
0
0
0
0
0
0
0
0
0
0
0
0
0
0
0
0
0
0
0
0
0
0
0
0
0
0
0
0
0
0
0
0
0
0
0
0
0
0
0
0
0
0
0
0
0
0
0
0
0
1
0
0
0
0
0
0
0
0
0
0
0
0
0
0
0
0
0
0
0
0
0
0
0
0
0
0
0
0
0
0
0
0
0
0
0
0
0
0
0
0
0
0
0
0
0
0
0
0
0
0
0
0
0
0
0
0
0
0
0
0
0
0
0
0
0
0
0
0
0
0
0
0
0
0
0
0
0
0
0
0
0
1
0
0
0
0
0
0
0
1
0
0
0
0
0
0
0
0
0
0
0
0
0
0
0
0
0
0
0
0
0
0
0
0
0
0
0
0
0
0
0
0
0
0
0
0
0
1
0
0
0
0
0
0
0
0
0
0
0
0
0
0
0
0
0
0
0
0
0
1
0
0
0
0
0
0
0
0
0
0
0
0
1
1
0
0
0
0
0
0
0
0
0
0
0
0
0
0
0
1
1
0
1
0
0
0
0
0
0
0
0
0
1
0
0
0
0
0
0
1
0
0
0
0
0
0
0
0
0
0
1
0
0
0
0
1
0
1
0
0
0
0
0
0
0
1
0
0
0
1
0
0
0
1
0
1
1
0
0
1
1
0
0
0
1
0
0
0
1
0
0
0
0
0
0
0
0
0
1
0
0
0
0
0
0
1
0
0
0
0
0
0
0
0
0
0
0
0
0
0
0
0
0
0
0
0
0
0
0
0
0
0
0
1
0
0
1
0
0
0
0
0
0
0
0
0
0
0
0
0
0
0
0
0
0
1
0
0
1
0
0
0
0
0
0
0
0
0
0
0
1
0
0
1
0
0
0
0
0
0
0
0
0
0
0
1
1
0
0
0
0
0
0
0
0
0
0
0
0
1
0
0
0
0
0
0
0
0
0
0
0
0
0
0
0
0
0
1
0
0
0
0
0
0
0
0
0
0
0
0
0
0
0
0
0
1
0
0
0
0
0
0
0
0
0
0
0
0
0
0
0
0
0
0
0
0
0
0
0
0
0
0
0
0
0
0
0
0
0
0
0
0
0
0
0
0
1
0
0
0
0
0
0
0
0
0
0
0
0
0
0
0
0
0
0
0
0
0
0
0
0
0
0
0
0
0
0
0
0
0
0
0
0
0
0
0
0
0
0
0
0
0
1
0
0
0
0
0
0
0
0
0
0
0
0
0
0
0
0
0
0
0
0
0
0
0
0
0
0
0
0
0
0
0
0
0
0
0
0
0
0
0
0
0
0
0
0
0
0
0
1
0
0
0
0
0
0
0
0
0
0
1
0
0
0
0
0
0
0
0
0
0
0
0
0
0
0
1
0
0
1
0
0
0
0
0
0
0
0
0
0
0
0
0
0
0
0
0
0
0
0
0
0
0
1
0
0
0
0
0
0
0
0
0
0
0
0
0
0
0
0
0
0
0
0
0
0
0
0
0
0
0
0
0
0
0
0
0
0
0
1
0
0
0
0
0
0
0
0
0
0
0
0
0
0
0
0
0
0
0
0
0
0
0
0
0
0
0
0
0
0
0
0
0
0
0
0
0
0
0
0
0
0
0
0
0
0
0
0
0
0
0
0
0
0
0
0
0
0
0
0
0
0
0
0
0
0
0
0
0
0
0
0
0
0
0
0
1
0
0
0
0
0
0
0
0
0
0
0
0
0
0
0
0
0
0
0
0
0
0
0
0
0
0
0
0
0
0
0
0
0
0
0
0
0
0
0
1
0
0
0
0
0
0
0
0
0
0
0
0
1
1
0
0
0
0
0
0
0
0
0
0
0
0
0
0
0
0
0
0
0
0
0
0
0
0
0
0
0
0
0
0
0
0
0
0
0
0
0
0
0
0
0
0
0
0
0
0
0
0
0
0
0
0
0
0
0
0
0
0
0
0
0
0
0
0
0
0
0
0
0
0
0
0
0
0
0
0
0
0
0
0
0
0
0
0
0
0
0
0
0
0
0
0
0
0
0
0
0
0
0
0
0
1
0
1
0
0
0
0
0
0
0
1
1
1
1
0
0
0
0
0
0
0
0
0
0
0
0
0
0
0
0
0
0
0
0
0
0
0
0
0
0
0
0
1
1
0
0
0
0
0
0
0
0
0
0
0
0
0
0
0
0
0
0
1
0
0
0
0
0
0
0
1
1
0
1
1
0
0
1
0
0
0
0
0
0
0
1
0
1
0
0
0
0
0
0
0
0
0
0
0
0
0
0
0
0
0
0
0
0
0
0
0
0
0
0
0
1
1
0
0
0
1
1
0
0
0
0
1
0
0
1
0
1
0
0
0
0
0
1
0
0
0
1
0
0
0
0
0
0
0
0
0
0
0
0
0
0
0
0
0
0
0
0
0
0
0
0
0
0
0
1
0
0
0
0
0
0
1
0
0
0
0
0
0
0
0
0
0
0
0
0
0
0
0
0
0
0
0
0
0
0
0
0
0
0
0
0
1
0
1
0
0
0
0
0
0
0
1
0
0
0
0
0
0
0
0
0
0
0
1
0
0
0
0
0
0
0
0
0
1
0
0
0
0
0
0
0
1
0
0
0
0
0
0
0
1
0
0
0
0
0
0
0
0
0
0
0
0
0
0
0
0
0
0
0
1
0
1
0
0
0
0
0
1
0
0
0
0
0
0
0
0
0
0
0
0
0
0
0
0
0
0
0
0
0
0
0
0
0
1
0
1
0
0
0
0
0
0
0
0
0
1
0
0
0
0
0
1
0
0
0
0
0
0
0
0
0
0
0
0
0
0
0
1
0
0
0
0
0
0
0
0
1
0
0
0
0
0
0
0
0
0
0
0
0
0
0
0
0
0
0
0
0
0
0
0
0
0
0
0
0
0
0
1
0
0
0
0
0
0
0
0
0
0
0
0
0
0
0
0
1
0
0
0
0
0
0
0
0
1
0
0
0
0
0
0
0
0
0
1
0
0
0
0
0
1
0
0
0
0
0
0
0
0
0
0
0
0
0
0
0
0
0
0
0
1
0
0
0
0
0
0
1
0
0
0
0
0
0
0
0
1
0
0
0
0
0
0
0
0
0
0
0
0
0
0
1
0
0
1
0
0
0
1
0
0
0
0
0
0
0
0
0
0
0
0
0
0
0
0
1
0
0
0
0
0
0
0
0
0
0
1
0
1
0
0
0
0
0
0
1
0
0
0
0
0
0
0
0
0
0
0
0
0
0
0
0
0
0
0
0
0
0
0
0
0
0
0
1
1
0
0
0
0
0
0
1
0
0
0
0
0
0
0
0
0
0
0
0
0
1
0
0
0
0
0
0
0
1
0
0
0
0
0
0
0
0
0
0
0
0
0
0
0
0
0
0
0
0
0
0
0
0
0
0
0
1
0
0
0
0
0
0
0
0
0
0
1
0
0
1
0
0
0
0
0
0
0
0
0
0
0
0
0
0
0
0
0
0
0
0
0
0
0
0
0
0
0
0
0
1
0
0
0
0
0
0
0
1
0
0
0
0
0
0
0
1
0
0
0
0
1
0
0
0
0
0
0
0
0
0
0
0
1
0
1
0
0
0
1
0
				</DataArray>
				<DataArray type="Float64" Name="h" NumberOfComponents="1" Format="ascii">
0.6974654699
0.6974349521
0.7786890389
0.7746136933
0.7566927641
0.7700576145
0.7674887028
0.7400971933
0.7536131274
0.7310902257
0.7695073086
0.7805067892
0.6711704751
0.7679023183
0.7178966781
0.6276016216
0.7818610295
0.7032270206
0.6729401098
0.7762389958
0.7897394200
0.6328340019
0.6570153559
0.7601990154
0.7790564577
0.6210328727
0.6163407902
0.6482006594
0.6809792087
0.7620872119
0.7736187589
0.6778650196
0.6190195157
0.7872043509
0.7701195087
0.7088110997
0.7932918144
0.6318936446
0.6450447646
0.7773524894
0.7064242224
0.6591178841
0.6261812206
0.6476133472
0.7366827469
0.6463137583
0.6431130234
0.7545591108
0.6776755041
0.6790031772
0.7923062763
0.6653238629
0.6624193422
0.6660868564
0.6859317924
0.6114685895
0.6561493582
0.7443336465
0.6885205545
0.6717001849
0.7265799538
0.7727748888
0.6744372539
0.6849696524
0.6414194374
0.6563570809
0.6795687373
0.6754178431
0.7250529042
0.7716483063
0.7027520678
0.7102923359
0.6193379369
0.6669856573
0.6707102341
0.6452331828
0.7230193297
0.6864421145
0.7653033883
0.6455286549
0.6983853952
0.6593725408
0.6710576133
0.6756012396
0.6344632903
0.6558708523
0.6777647968
0.6746287470
0.6720574308
0.6793976704
0.6674648475
0.6494661594
0.6848686561
0.6823942714
0.6627227554
0.6590090799
0.6726563482
0.6396267703
0.6487991042
0.6729320933
0.6755110115
0.7082116573
0.6669603977
0.7851317152
0.7064435691
0.6787030940
0.6667569159
0.6771800003
0.6766774568
0.6645592636
0.6826502909
0.6805027871
0.6721364794
0.6702107100
0.6695066658
0.6281375374
0.6681214758
0.7369688594
0.6658226343
0.6710639456
0.7273262501
0.6736641405
0.6584531209
0.7594431374
0.6713695173
0.6745126719
0.6700660842
0.7502199074
0.6053279861
0.6474376665
0.6561627376
0.6689441446
0.6713091228
0.5436928054
0.7555745289
0.6633854060
0.6148917866
0.5580476848
0.6501109858
0.6005005399
0.7298882139
0.7620455671
0.6380634968
0.6000660762
0.6621771471
0.6604456035
0.6049472633
0.5485390159
0.7495167280
0.5121238374
0.6155763296
0.5244244104
0.5320079962
0.5021720213
0.6795388911
0.5809712757
0.5070736787
0.7045486540
0.5090816298
0.7332188485
0.5927332172
0.5357454581
0.6010845983
0.7240509380
0.7262197057
0.6241960346
0.6030074290
0.5952039176
0.7544549820
0.5515605845
0.5090642877
0.7506461994
0.5033580707
0.6832301596
0.5997472522
0.5002183869
0.5946418708
0.5629404074
0.5007350983
0.7054666882
0.6147486578
0.6088257593
0.7180592842
0.6655695428
0.7530927071
0.7453757775
0.6095090432
0.5018313798
0.7505120495
0.7446960760
0.6208900410
0.5008501678
0.7282195209
0.6189533961
0.5003550168
0.6001126475
0.6570421403
0.6358205937
0.6308324907
0.5036152895
0.7470041292
0.6705878912
0.7450560504
0.5024133314
0.6534744089
0.6529742701
0.5841489290
0.6009412534
0.6452032302
0.5837533477
0.6108376511
0.7386888389
0.6558233678
0.6511453916
0.5904575554
0.6267575963
0.5819350961
0.6342524259
0.5984741410
0.6949875437
0.6603263903
0.6857576781
0.5896831250
0.6892458646
0.6786798792
0.5195936315
0.6747849380
0.6876441872
0.6694309471
0.6825616580
0.5072881264
0.6879078284
0.6843722123
0.5051244395
0.5719324520
0.6894895448
0.6144833945
0.5650077941
0.6913119433
0.5659690955
0.6018559821
0.5775689120
0.6153819556
0.5794273844
0.5882668277
0.5759795086
0.6336493653
0.5985994029
0.5699668505
0.6004958260
0.5633049346
0.5852466743
0.6158906838
0.6354269518
0.6231107835
0.6158392297
0.5754477203
0.5801598921
0.6511442440
0.6894084337
0.5735916120
0.6842035907
0.6936188316
0.6949689023
0.6823357821
0.6172241303
0.5460815251
0.6632553850
0.5101304566
0.6912054927
0.6835082792
0.5866224605
0.6850574797
0.6890387978
0.6900664198
0.6738655980
0.6903826425
0.6950186427
0.6935285809
0.6748971838
0.6806042331
0.5137800200
0.5405427705
0.6270373559
0.6881959362
0.6876434824
0.6866435766
0.5432088429
0.6009740334
0.5877592942
0.5563734830
0.6088363295
0.5570942134
0.5673400757
0.5440665072
0.5940001926
0.5614330143
0.5491374878
0.5764341594
0.6158413771
0.5894983206
0.5605400317
0.5874420963
0.6214412220
0.6346357511
0.5410795617
0.5708099185
0.5562717456
0.5875892304
0.6902856479
0.6949692384
0.7000556116
0.5259114849
0.6674933285
0.6899055779
0.6950030590
0.5543447560
0.6904929877
0.5911017428
0.5712359441
0.7009154930
0.6881388585
0.6968859586
0.6587741034
0.6967127995
0.6926970037
0.7012239184
0.5835240148
0.6956624368
0.6931450779
0.6869432319
0.6647121690
0.5340025230
0.6792834278
0.6994066750
0.6800808594
0.6937103415
0.5330815796
0.7275273439
0.5197533999
0.5900001457
0.5395864222
0.5772042819
0.6065812216
0.5348709456
0.5168146960
0.5465533555
0.5664605113
0.7087320602
0.7174020490
0.6242655325
0.7199225247
0.5383742396
0.5661339376
0.7324973595
0.5137574477
0.7287194608
0.5580972273
0.5325949687
0.7199946130
0.7136155045
0.8114469330
0.5895031198
0.5770767774
0.6358168436
0.5246253502
0.6994080101
0.7158649889
0.7227007573
0.5688280991
0.7283558379
0.7162458460
0.5561249761
0.6488396929
0.7009381640
0.7071868227
0.6766967723
0.4770005231
0.6956751302
0.6963396295
0.6733170423
0.6960415952
0.5587516019
0.5339655375
0.7027427329
0.5543444491
0.6946971475
0.7014887513
0.7067787223
0.4448981867
0.5747798980
0.6847847342
0.7018686154
0.6673513289
0.6818050359
0.7054352028
0.4543832243
0.4183639426
0.4184887996
0.5837270518
0.7033174554
0.6926290142
0.5271798826
0.6989152619
0.6310185619
0.6368976926
0.6993589989
0.6864599987
0.6994129054
0.4767557689
0.7077761183
0.7104656257
0.7110543523
0.7249383016
0.5050830706
0.7140326825
0.7041685446
0.5162038288
0.7170499968
0.7094276156
0.7094673379
0.6840222764
0.5224865285
0.7101791606
0.7644538976
0.7152350454
0.7023171310
0.5571487598
0.7192770532
0.6062939877
0.7215202209
0.8116027122
0.7260077437
0.7169972739
0.7294847696
0.7219521192
0.7280019309
0.7077526346
0.7013377065
0.7152507808
0.7333885121
0.7403761380
0.5118367229
0.7297854953
0.7270613766
0.5055350910
0.7142133857
0.7421176511
0.7136213059
0.7245728126
0.7316225337
0.6853841871
0.5688343069
0.7021164058
0.5716853899
0.6840210463
0.8921397160
0.7262249357
0.7357228858
0.7831826758
0.5458760294
0.6386001172
0.4744457749
0.6139760479
0.5387173816
0.7072016935
0.7155749892
0.7021566471
0.6282444787
0.4943605078
0.6899378917
0.4972579150
0.7018193764
0.5695306945
0.6812470725
0.7084393286
0.8718932871
0.4475859216
0.5367425790
0.4635117582
0.4462083191
0.6445747449
0.4812903453
0.6762030776
0.7387969647
0.7468423995
0.6982987348
0.4298445689
0.7084596338
0.4195639909
0.7426432718
0.6936195394
0.9358617662
0.5236693354
0.4543868391
0.4273038979
0.4790642240
0.8158591017
0.7049137337
0.4276815605
0.7445653024
0.7337606187
0.4244456134
0.4184910238
0.5837265905
0.5307558835
0.7065599262
0.5493962784
0.6745532743
0.7488251649
0.4298424083
0.6088335351
0.7445493222
0.4972566871
0.7191854524
0.5367463659
0.7367219322
0.7267589392
0.5253903724
0.4761530854
0.6088380280
0.7354931136
0.7389035645
0.8063837354
0.4543819390
0.7294421203
0.4151114666
0.7423239532
0.6978994137
0.6019309031
0.7281827891
0.4744427972
0.7341724117
0.4795461189
0.4943562382
0.5581528408
0.5236695388
0.4790621263
0.5494027255
0.6978982675
0.6445809996
0.4589688223
0.4106632311
0.5382420902
0.3932986138
0.4563137129
0.4298444220
0.5695332633
0.4034678018
0.4231063479
0.8502655715
0.3994579504
0.4640354122
0.6746400011
0.5119887457
0.7011635787
0.6415025425
0.4298954356
0.7222452157
0.7490676561
0.5573649258
0.4219855417
0.7262504418
0.4812866008
0.6332667956
0.7077284839
0.5307558787
0.7155813934
0.7493799131
0.6853850963
0.5125484431
0.7462141019
0.7378645379
0.7464403284
0.7094406403
0.5020637191
0.6904579542
0.7346529603
0.7445543112
0.5663361704
0.4399750890
0.7135991398
0.7445698671
0.3928307729
0.7446378740
0.4499391791
0.7013661284
0.7110273868
0.7142268327
0.4562095521
0.7023790255
0.4873134880
0.4132993105
0.6315618152
0.4532689871
0.7021284998
0.6130795596
0.5163436777
0.9055390656
0.5005361945
0.6690152425
0.5166309806
0.7939278406
0.4285502192
0.7152270014
0.4103846847
0.3571766315
0.7393657207
0.7041531923
0.4034805141
0.3711211993
0.4685681553
0.7349242743
0.4399648140
0.7346527243
0.4345801692
0.7509164780
0.4795460149
0.5125502437
0.6019329439
0.4543814930
0.8904294800
0.7199075259
0.4864568802
0.5253943968
0.4715603188
0.5814608510
0.7489933771
0.5119910949
0.4914368999
0.3571772837
0.5583965321
0.4496506147
0.6415047150
0.4761544605
0.5573670511
0.4640351048
0.7415165404
0.7927033403
0.7466317317
0.7497395734
0.5382482052
0.3729914286
0.3898267649
0.5797304387
0.9328977557
0.7371725874
0.6746393973
0.3916914860
0.7683661558
0.7285378698
0.4523003656
0.4894221229
0.4359438193
0.8128528735
0.5309815344
0.6238900096
0.4563139208
0.7436117545
0.4320422939
0.5053404623
0.4530496086
0.7494813871
0.7401655210
0.8787594025
0.7458529396
0.6061065840
0.4865574039
0.4718523298
0.4264495245
0.9186112693
0.9552291652
0.5581528549
0.4083044311
0.4141245925
0.5283796143
0.7423487555
0.5859767943
0.5381645641
0.9690453426
0.8633725519
0.4117864573
0.3864318847
0.7432771768
0.4014064821
0.4300668319
0.6676555544
0.7536555427
0.9460845059
0.8065210613
0.4138412509
0.4179776690
0.6737834300
0.5492292062
0.5317535397
0.7476688719
0.7834768321
0.7435187971
0.7423112150
0.7898547978
0.8724317627
0.9653873365
0.5574893886
0.7927000799
0.7427610970
0.4034819004
0.9749383397
0.3994604110
0.8923346518
0.4169367984
0.4142516749
0.9761225678
0.4399667908
0.9534599254
0.9632762453
0.4219883961
0.9405180729
0.4118310579
0.3687339629
0.8351931042
0.9494591677
0.4428109343
0.7042844819
0.7313184358
0.7312473506
0.7042004392
0.7752473707
0.7805027872
0.7695215675
0.7534768938
0.7331996168
0.7700752429
0.7566461871
0.7331107976
0.7535690722
0.7179480635
0.7675185614
0.7468132840
0.7534412398
0.7752390287
0.6958025283
0.7032480834
0.7746065517
0.7786896510
0.6729895024
0.7620955418
0.6489098870
0.7841131002
0.7400608900
0.6210292147
0.7790553024
0.7310735611
0.6502456596
0.6711409941
0.7834732715
0.6138128758
0.6530821534
0.7467894418
0.7736160193
0.6957805125
0.7871844861
0.6190548114
0.6779535807
0.6098695325
0.7773676006
0.6386357744
0.7818703807
0.6275798137
0.6262474931
0.6450850610
0.7841237468
0.6489044568
0.7065209904
0.7678959858
0.7762437634
0.7834819720
0.6569392148
0.7255467714
0.6328033365
0.7825617208
0.6502235907
0.7897627752
0.6530271596
0.6367299028
0.6526915759
0.7546384861
0.6137908277
0.7367732889
0.7922737281
0.6432018226
0.6481487803
0.7601467860
0.6808779489
0.6562121218
0.6336288762
0.6162761267
0.7656791462
0.6754928303
0.6385712587
0.6708466146
0.7913415039
0.6098256926
0.6625038807
0.7254426156
0.6791686430
0.6745316740
0.6366814496
0.7825439191
0.7392409922
0.6526759867
0.7086978769
0.6415021354
0.6318144935
0.7046246447
0.7700497415
0.6744214650
0.6753947545
0.6573067075
0.7933113046
0.6850714240
0.6707838017
0.7112678340
0.6925828369
0.6475405262
0.6669675373
0.6655561786
0.7103998853
0.6194234387
0.7513542652
0.6261908954
0.6346059602
0.7656042543
0.7461324503
0.7913276759
0.6590758600
0.7231140518
0.7028330703
0.6692919190
0.6707324679
0.6335495595
0.6269072655
0.7251131767
0.7950137357
0.6754852993
0.7716944201
0.7391368512
0.7045174681
0.6533824069
0.6572906641
0.6748421992
0.6838445328
0.6801255080
0.6776939350
0.6652402124
0.6745518599
0.6462631443
0.6593745331
0.6755726437
0.6597745395
0.6791921641
0.6790265981
0.7265316014
0.7727274865
0.6268136919
0.7013884933
0.6692995363
0.6884489665
0.6797274298
0.6655436540
0.6375242735
0.6178159712
0.7111692760
0.7950264909
0.6705252047
0.6858342210
0.7041013111
0.7512914242
0.7460904559
0.6113930244
0.6619943493
0.6779689778
0.6261172062
0.6660952754
0.6925030610
0.6716697464
0.6494849814
0.7442640235
0.6345270186
0.6849043358
0.6748666411
0.7851700830
0.6488188550
0.6597668464
0.6268022899
0.6837688752
0.7082483057
0.6808190074
0.6755937885
0.6743067536
0.6563315400
0.6754605467
0.6795942705
0.7939962759
0.6397013414
0.7399245585
0.6589847505
0.6653639578
0.6801551428
0.6729433411
0.6786826760
0.6533714920
0.6617624093
0.6619995623
0.6767094583
0.6804809084
0.7013527280
0.6779263136
0.6721387277
0.6704699539
0.6452053596
0.6840655549
0.6796629711
0.6863954674
0.6177320210
0.6664697830
0.6374875474
0.6826259765
0.6645794339
0.7040292447
0.6755743724
0.6619669289
0.6637766301
0.7398772203
0.6559413788
0.6736376145
0.6696192250
0.7939712345
0.6765335560
0.6653427461
0.6743319661
0.6344086710
0.6454674171
0.6777517477
0.6711793334
0.6983555601
0.6680956838
0.7652400577
0.6808493940
0.7273338020
0.6746558432
0.6267381778
0.6664757383
0.6689672870
0.6837971278
0.6513833811
0.6744799893
0.6702663810
0.6684933613
0.6720541955
0.6626914718
0.6824184085
0.6593343156
0.6794278814
0.6674757799
0.6714753095
0.7880665566
0.6713474824
0.6700395799
0.6840934042
0.6473049903
0.6669818367
0.6653581308
0.6848710461
0.6637933428
0.6765247877
0.6696317055
0.6728421654
0.7555758785
0.6633341662
0.6712860774
0.7064327914
0.6726718357
0.6621912623
0.6839764994
0.7620398961
0.6714723444
0.6513938642
0.6594391657
0.6702363004
0.6772008212
0.6317365405
0.7880215450
0.6685190140
0.6695380918
0.7495168757
0.6838212960
0.6379711231
0.7563860497
0.6282530888
0.6702738274
0.6604161057
0.6715110688
0.6667282226
0.7556716604
0.6513074752
0.6841585697
0.5181834238
0.6654624768
0.6728665801
0.6341311008
0.5665438779
0.6720481960
0.6640968752
0.6710900047
0.6848930311
0.5244268041
0.7369556047
0.6501534015
0.6658810515
0.7612623120
0.6155757742
0.5319803552
0.6795591593
0.6317310609
0.7563879769
0.5952159110
0.7262230672
0.6714961373
0.5172753491
0.7556739913
0.7446881593
0.5265106285
0.6832234649
0.6839932322
0.7594474439
0.6053809012
0.5927636086
0.7385959141
0.6584099077
0.6562198737
0.7677713732
0.6010882851
0.6148320610
0.5356616024
0.7502193068
0.5090674084
0.6640984986
0.6148957553
0.5436987394
0.5286360592
0.6811955207
0.6721071865
0.5880008262
0.5581004909
0.5033569728
0.7704059831
0.6555223818
0.6501036169
0.7612627410
0.6841619379
0.6341329708
0.5181880575
0.6512811615
0.6501773720
0.5514610815
0.5890178652
0.5665825460
0.5090646310
0.6832307448
0.5121465973
0.7180624532
0.6789141404
0.7385894750
0.7446868926
0.6558774833
0.5154027301
0.5039734392
0.6000157409
0.5486652296
0.6049351593
0.7054699166
0.5265820165
0.7677777842
0.6832215666
0.7003323144
0.7298835891
0.6145449249
0.6148682571
0.5946939056
0.6114601064
0.6004711188
0.5173045716
0.7350119120
0.7505150633
0.5811166942
0.5070769414
0.6555205874
0.6774162744
0.5286724213
0.7648088641
0.7704148207
0.6811974456
0.7531001008
0.5881105317
0.5021720208
0.7045414631
0.5890247358
0.6095769188
0.6737194064
0.5003550593
0.6029382883
0.7350090844
0.6560809446
0.5998100906
0.7003268487
0.5039771003
0.6114564320
0.5865677766
0.7416520630
0.5154202899
0.6789127847
0.7452555850
0.5008501738
0.5568608774
0.7240474449
0.6244240597
0.6190026813
0.5325537497
0.7332137295
0.6706142261
0.5005845593
0.7506393650
0.7450681907
0.5996829295
0.5024121849
0.6774050222
0.7544541165
0.7470189875
0.7648174810
0.6308645526
0.5011752434
0.5007352429
0.6826250906
0.7416460620
0.7452530549
0.7386986961
0.5326510304
0.5868188808
0.6781320409
0.6430780743
0.6087697441
0.5568574599
0.5002183807
0.6736936784
0.7252507426
0.7346307145
0.5631810213
0.6558329605
0.6452294758
0.6208541614
0.5072815284
0.5005842893
0.7446814603
0.5011747384
0.5057766750
0.5017778416
0.6655403032
0.7453640590
0.5018322796
0.6603476688
0.6336539538
0.5759986403
0.6347872925
0.5882762585
0.6357981842
0.7346186049
0.6450813910
0.7140161175
0.5794668926
0.6160385985
0.6826174790
0.6144991292
0.7282121972
0.7085607128
0.6434612442
0.6570371358
0.6708132316
0.5801724273
0.6003963479
0.6354353499
0.5754773215
0.6158986856
0.5986269250
0.7252396640
0.6913176238
0.6781288641
0.5163804077
0.6552637292
0.6534617036
0.5057827796
0.6876268779
0.5866605851
0.5017759705
0.6900742841
0.6749343898
0.5404136686
0.6805545372
0.6506544279
0.6866745652
0.6632757502
0.6850409224
0.5036122360
0.6893999546
0.6823713784
0.5101399199
0.6669180938
0.6167591217
0.6890622749
0.6108112956
0.5563946930
0.5877654500
0.6949852300
0.5614573307
0.6088391202
0.6160314727
0.6450681391
0.6347787535
0.6751119154
0.6458044685
0.5673541426
0.6009757238
0.7140103868
0.5837099975
0.6009332084
0.5841296323
0.6529731743
0.5984350763
0.5605578749
0.5875941158
0.7085530855
0.5562956889
0.5874529159
0.6342468409
0.6267366760
0.6346290246
0.5763944140
0.6320542492
0.5819041858
0.6003886430
0.5904463512
0.6708107407
0.6879247506
0.5712545812
0.6581797730
0.6800954720
0.6927411397
0.6956990870
0.6843445088
0.6671628999
0.5722082820
0.5832123259
0.6694119456
0.5051170800
0.6709186315
0.6931539183
0.6869343122
0.5896351002
0.5164113863
0.6825854764
0.6894729080
0.6892516655
0.6674871692
0.6881727536
0.6950147297
0.6950262025
0.6786484728
0.6748964763
0.6510190454
0.5259200171
0.6552691708
0.5196272052
0.6583885943
0.6904914982
0.6798636730
0.6857762504
0.6876160305
0.5330990640
0.5662763168
0.6153807860
0.6751074673
0.5772030557
0.5649851030
0.6018428139
0.6490341698
0.5465685338
0.6458102009
0.5775565170
0.5395996244
0.6065730915
0.5659379362
0.5877575138
0.5383920095
0.5661375132
0.6320551246
0.6011198762
0.5699498177
0.5852269358
0.6357979266
0.5559647753
0.6231018903
0.5763850411
0.5326112414
0.5770782996
0.5632770777
0.6004911418
0.6864469010
0.6949797971
0.6994326233
0.5137606145
0.6738612545
0.6926365760
0.6935204222
0.5543529377
0.6882022166
0.6799594871
0.6829896654
0.6365407231
0.6625149776
0.5735632570
0.7019181800
0.6903427465
0.6989483089
0.6274743437
0.6946923139
0.6935757711
0.7015320506
0.5462131731
0.6582036450
0.6881235246
0.6949445941
0.6912086143
0.6835416009
0.6765299463
0.5587402214
0.6732912100
0.7009822697
0.6841815080
0.6960609259
0.6711355286
0.7140000693
0.7215096848
0.6550088271
0.7170561145
0.5431878714
0.5662680668
0.7311380274
0.7163856130
0.5162102823
0.7228402844
0.6062833039
0.5440456986
0.7232445965
0.7101795862
0.7684620600
0.5877596043
0.5939989339
0.6490602939
0.5224977836
0.5050933605
0.5570802582
0.7104584656
0.7048161628
0.7219459171
0.5571459587
0.7271038690
0.7164748618
0.5456450692
0.7069478492
0.7167595372
0.6385861333
0.7175279786
0.5491190422
0.5764312533
0.7522239658
0.7297514584
0.5055434744
0.7265028060
0.5716821389
0.5410578238
0.7228094339
0.7108749183
0.8063933845
0.6011229971
0.5708010702
0.6214490203
0.5342995329
0.5118483257
0.5559548012
0.6981345411
0.7185261642
0.7209568468
0.5779828814
0.7257780343
0.7139128544
0.5458781943
0.4692400637
0.6760222486
0.6676186662
0.6993762496
0.6338340195
0.6914393503
0.7084947638
0.6650374396
0.4635081499
0.4525085782
0.4136225306
0.6983165949
0.4195614973
0.5037468579
0.6935983081
0.6881461759
0.6792991937
0.5728441466
0.6937009779
0.6637541105
0.5339657680
0.5387206343
0.7049534255
0.5543285100
0.6966997589
0.7011784055
0.4219711167
0.7065521019
0.4244429314
0.6139530809
0.6812242341
0.7008749519
0.6690166284
0.6898802993
0.7072447907
0.6830634691
0.4801912468
0.4673865483
0.4108621293
0.6947851293
0.4060149665
0.5690078870
0.7021390436
0.6899069898
0.6625431516
0.5005344956
0.6968671445
0.6282454297
0.5913629934
0.7018496402
0.6902907591
0.7000203070
0.4475831210
0.7084542406
0.7095465598
0.7266754809
0.7086496430
0.6989325405
0.7267580723
0.7228478292
0.7354874727
0.7372658537
0.5168003398
0.7133003437
0.7332668311
0.7015244680
0.7132623257
0.7158152267
0.5197406783
0.7144459906
0.7103104805
0.7048170214
0.7203000663
0.6819579310
0.7337997119
0.5348593940
0.7075954938
0.7684770400
0.7135564728
0.7222254268
0.7144556870
0.7281707560
0.6934785683
0.5664623745
0.6914060368
0.7164819547
0.5900072635
0.6994104677
0.7094678751
0.8502581596
0.7490383579
0.7203074645
0.7341634195
0.8011381566
0.7232509116
0.7164100577
0.7403976914
0.5456382383
0.6550347889
0.7271126076
0.7198174480
0.7644291311
0.7174119482
0.7269276976
0.7051195845
0.7192669213
0.6973442108
0.7110488801
0.7158700028
0.7285880289
0.7359574141
0.5246113238
0.7311687857
0.7330030187
0.7014503076
0.7315978510
0.5137433389
0.7136073646
0.7136530574
0.6894975620
0.6894990340
0.7370344080
0.5342917850
0.7087415234
0.7325423490
0.7115437584
0.7217716145
0.7285392426
0.6419911920
0.5779877310
0.7031078532
0.7294758775
0.7200010238
0.5580961041
0.6819583475
0.8904252344
0.7275607847
0.7227104374
0.7326360835
0.8583464954
0.7257863714
0.7139294069
0.7709615954
0.5561234040
0.6242844609
0.7265111011
0.7199207738
0.4859787278
0.5747228236
0.7349146894
0.7939207838
0.6947857487
0.5339574412
0.4462110157
0.7053995040
0.4060172680
0.7462125883
0.7144179192
0.7033240713
0.6310172798
0.9055433625
0.5226499710
0.4525120536
0.5088662943
0.6819331707
0.4171488627
0.4942435083
0.7683577304
0.6993387078
0.4240861821
0.7426946522
0.7333969750
0.4692426382
0.4183661584
0.6253660960
0.6253648240
0.5530574614
0.6848035429
0.7077473415
0.8804342057
0.4767581373
0.5770411231
0.5466056074
0.4770046581
0.6904515989
0.7403488664
0.4379828295
0.4195794492
0.6312167890
0.4397516284
0.7416248164
0.4956644303
0.6490907451
0.7393551322
0.7543031431
0.6956644699
0.4425588182
0.7071491304
0.4108643000
0.7377557026
0.6963491140
0.5770409662
0.9328994954
0.5352490877
0.4673906202
0.5093212423
0.6914597757
0.4132969295
0.4838134940
0.8377206892
0.7027139001
0.4379857092
0.7404934307
0.7310704895
0.4449006911
0.4136244510
0.5690081399
0.4354784674
0.5174225218
0.6676366100
0.7067692588
0.9169634094
0.4219738037
0.5582311540
0.4801956585
0.4255419486
0.6639748627
0.7438251327
0.4603366757
0.4240838466
0.5933435476
0.7396057580
0.6243671428
0.5226467279
0.4942387214
0.7158145060
0.5466086505
0.7332768056
0.7152500081
0.6639862794
0.3712651936
0.7221240092
0.4169684439
0.5142003083
0.3895343269
0.7561869977
0.4891419032
0.7318880855
0.4314415687
0.5933515162
0.4557362917
0.7318958809
0.7209621198
0.7338023267
0.4085968504
0.7075933404
0.7522169032
0.7191861436
0.6981412766
0.7562184297
0.4001294636
0.4470420045
0.7266897195
0.7108681385
0.7002040927
0.4217618496
0.7095365322
0.4964931212
0.7372726081
0.7283658305
0.6949299360
0.6753070329
0.7169748662
0.6742307851
0.4387414604
0.7275576434
0.7363354820
0.7185281848
0.7251356509
0.8397746031
0.6155321809
0.4145716441
0.7251479021
0.7204183426
0.4859724600
0.5363845498
0.7311985082
0.4638807488
0.5088605978
0.7162594118
0.5099275824
0.5352493481
0.4838073456
0.6990575719
0.5582370430
0.7359657762
0.6949285841
0.7423189145
0.6312268042
0.4094157882
0.7333917404
0.4039150867
0.5285194617
0.3864298600
0.4589924677
0.4190453329
0.5530597587
0.3820868992
0.7249333314
0.7357303516
0.7270619544
0.4142488824
0.8114523609
0.7294291883
0.8011574369
0.3945234312
0.4504222617
0.7297974413
0.6710511924
0.4050287029
0.4987052665
0.7370393277
0.8397678890
0.6990584911
0.7010373540
0.6521714605
0.4169336701
0.7269468066
0.7832048924
0.5733788627
0.4144039278
0.7245871371
0.7404200784
0.4956581492
0.6178544053
0.7316329312
0.4813326819
0.5093181473
0.7051012270
0.5174210599