<VTKFile type="UnstructuredGrid" version="0.1">
	<UnstructuredGrid>
		<Piece NumberOfPoints="1862" NumberOfCells="3498">
			<CellData>
				<DataArray type="Int32" Name="type" NumberOfComponents="1" Format="ascii">
0
0
0
0
0
0
0
0
0
0
0
0
0
0
0
0
1
0
0
1
0
0
0
0
0
0
0
0
0
0
0
0
0
1
0
0
0
0
0
0
0
0
0
0
0
0
0
0
0
0
1
0
0
0
0
0
0
0
0
0
0
1
0
0
0
0
0
0
0
0
0
0
0
0
0
0
0
0
0
0
0
0
0
0
0
0
0
0
0
0
0
0
0
0
0
0
0
0
0
0
0
0
0
0
0
0
0
0
0
0
0
0
0
0
0
0
0
0
0
0
0
0
0
1
0
0
0
0
0
0
0
0
0
0
0
0
0
0
0
0
0
0
0
0
0
0
0
0
0
0
0
1
0
1
1
0
0
0
0
0
0
0
0
0
0
0
0
0
1
0
1
0
0
0
0
1
0
0
0
0
0
0
0
0
1
1
0
0
0
0
0
1
0
0
0
0
0
0
0
0
1
0
0
0
0
0
0
0
0
0
0
0
0
0
0
0
0
0
0
0
0
0
0
0
0
0
0
0
0
0
0
0
0
1
0
0
0
0
0
0
0
0
0
0
0
0
0
0
0
0
0
0
0
0
0
0
0
0
0
0
0
0
0
0
0
0
0
0
0
0
0
0
0
0
0
0
0
0
0
0
0
1
0
0
0
0
0
0
0
0
0
0
0
0
0
0
0
0
0
0
0
0
0
0
0
0
0
0
0
0
0
0
0
0
0
0
0
0
0
0
0
0
0
0
0
0
0
0
0
0
0
0
1
0
0
0
0
0
0
0
0
0
0
0
0
0
0
0
0
0
0
0
0
0
0
0
0
0
0
0
0
0
0
0
0
0
0
0
0
0
0
0
0
0
0
0
0
0
0
0
0
0
0
0
0
0
0
0
0
0
1
0
0
0
0
0
0
0
0
0
0
0
0
0
0
0
0
0
0
0
0
0
0
0
0
0
0
0
0
0
0
0
0
0
0
0
0
0
0
0
0
0
0
0
0
0
0
0
0
0
0
0
0
0
0
0
0
0
0
0
0
0
0
0
0
0
0
0
0
0
0
0
0
0
0
0
0
0
0
0
0
0
0
0
0
0
0
0
0
0
0
0
0
0
0
0
0
0
0
0
0
0
0
0
0
0
0
0
0
0
0
0
0
0
0
0
0
0
0
0
0
0
0
0
0
0
0
0
0
0
0
0
0
1
0
0
0
0
0
0
0
0
0
0
0
0
0
0
0
0
0
0
0
1
0
0
0
0
0
0
0
0
0
0
0
0
0
0
0
0
0
0
0
0
0
0
0
0
0
0
0
0
0
0
0
0
0
0
0
0
0
0
0
0
0
0
0
0
0
0
0
0
0
0
0
0
0
1
0
0
0
0
0
0
0
0
0
0
0
0
0
0
0
0
0
0
0
0
0
0
0
1
0
0
0
0
0
0
0
0
0
0
0
0
0
0
0
0
0
0
0
1
0
0
0
1
0
0
0
0
0
0
0
0
0
0
0
0
0
0
0
0
0
0
0
0
0
0
0
0
0
1
0
0
0
0
0
0
0
1
0
0
0
0
0
0
0
0
0
0
0
0
0
0
0
0
0
0
0
0
0
0
0
0
0
0
1
0
0
0
0
0
0
0
1
0
0
0
0
0
0
1
0
0
0
0
0
0
0
0
0
0
0
0
0
0
0
0
0
0
0
0
0
0
0
0
0
0
0
0
0
0
0
0
0
0
0
0
0
0
1
0
0
0
0
0
1
0
0
0
0
0
0
0
1
0
0
0
0
0
0
0
0
0
0
0
0
0
1
0
0
0
0
0
0
0
0
0
0
0
0
0
0
0
0
0
0
0
0
0
0
0
0
0
0
0
0
0
0
0
0
0
0
0
0
0
0
0
0
0
0
0
0
0
0
0
0
0
0
0
0
0
1
0
0
0
0
0
0
0
0
0
0
0
0
0
0
0
0
0
0
0
1
0
0
0
0
0
0
0
0
0
1
0
0
0
0
0
0
0
0
0
0
0
0
0
0
0
0
0
0
0
0
0
0
0
0
0
0
0
0
0
1
0
1
0
0
0
0
0
0
0
0
0
0
0
0
0
0
0
0
0
0
0
0
0
0
0
0
0
0
0
1
0
0
0
1
0
0
0
0
0
0
0
0
0
0
0
0
0
0
0
0
0
0
0
0
0
0
0
0
0
0
0
0
1
0
0
0
0
0
0
0
0
0
0
0
0
0
0
0
0
0
0
0
0
0
0
0
0
0
1
0
0
0
0
0
0
0
0
0
0
0
0
0
0
0
0
0
0
0
0
0
0
0
1
0
0
0
0
0
0
1
0
0
0
0
0
0
0
0
0
0
0
1
0
0
0
0
0
0
0
0
0
0
0
0
0
0
0
0
0
0
0
0
1
0
0
0
0
0
0
0
0
0
0
0
1
0
0
0
0
0
0
0
0
0
0
0
0
0
0
0
0
0
0
0
0
0
1
0
0
0
0
0
0
0
0
0
1
1
0
1
0
1
0
0
0
0
0
0
0
0
0
0
0
1
0
0
0
0
0
1
1
0
0
0
0
0
0
1
0
0
0
0
0
1
1
1
0
0
0
0
0
0
0
0
0
0
0
0
1
1
0
0
1
0
0
0
0
0
1
0
0
0
1
0
1
0
0
0
0
0
0
0
1
0
0
0
0
0
0
0
1
0
0
1
0
0
0
0
0
0
0
0
0
0
0
0
0
0
0
1
0
0
0
0
0
0
0
0
0
0
0
0
0
0
0
0
0
0
0
0
0
0
0
0
0
0
0
0
0
0
0
0
0
0
0
0
1
0
0
0
0
0
0
1
0
0
0
1
0
0
0
0
0
0
0
0
0
0
0
1
0
0
0
0
0
0
0
0
0
0
0
0
0
0
0
0
0
0
0
0
0
0
0
0
0
0
0
0
0
0
0
0
0
0
0
0
0
0
0
0
1
1
0
0
0
0
0
0
0
0
0
0
0
0
0
1
0
0
0
0
0
0
0
0
0
0
0
0
0
0
0
0
0
0
0
0
0
0
0
0
0
0
0
0
0
0
0
0
0
0
0
0
0
0
0
0
0
0
0
0
0
0
0
0
0
0
0
0
0
0
0
0
0
0
0
0
0
0
0
0
0
0
0
0
0
0
0
0
1
1
0
0
0
0
0
0
0
0
1
0
0
0
0
0
0
0
0
0
0
0
0
0
0
0
0
0
0
0
0
0
0
0
1
0
0
0
0
0
0
0
0
0
0
0
0
0
0
0
0
1
0
0
0
0
0
0
0
0
0
0
0
0
0
0
0
0
0
0
0
0
0
0
0
0
0
0
0
0
0
0
0
0
0
0
0
0
0
0
0
0
0
0
0
0
0
0
0
0
0
0
0
0
0
0
0
0
0
0
0
0
0
0
0
0
0
0
0
0
0
0
0
0
0
0
0
0
0
0
0
0
0
0
0
0
0
0
0
0
0
0
1
1
0
0
0
0
0
1
0
0
0
0
0
0
0
0
0
0
0
0
1
0
0
0
0
0
0
0
0
0
0
0
0
0
0
0
0
0
0
0
0
0
0
0
0
0
0
0
0
0
0
0
0
0
0
0
0
0
0
0
0
0
0
0
0
0
0
0
0
0
0
0
0
0
1
0
1
0
0
0
0
0
0
0
0
0
0
0
0
0
0
0
0
0
0
1
0
0
0
0
0
0
0
0
0
0
0
0
0
0
0
0
0
0
0
0
0
0
0
0
0
0
0
0
0
0
0
0
0
0
0
0
0
0
0
0
0
0
0
0
0
0
0
0
0
0
0
0
0
0
0
0
0
0
0
0
0
0
0
0
0
0
0
0
0
0
1
0
0
0
0
0
0
0
0
0
0
1
0
0
0
0
0
0
0
0
0
0
0
0
0
0
0
0
0
0
0
0
0
0
0
0
0
0
0
0
0
0
0
0
0
0
0
0
0
1
0
0
0
0
0
0
0
0
0
0
0
0
0
0
0
0
0
0
0
0
0
0
0
0
0
0
0
0
0
0
0
0
0
0
0
0
0
0
0
0
0
0
0
0
0
0
0
0
0
0
0
0
0
0
0
0
0
0
0
0
0
0
0
0
0
0
0
0
0
0
0
0
0
0
0
0
0
0
0
0
0
1
0
0
0
0
0
0
0
0
0
0
0
0
0
0
0
0
0
0
0
0
0
0
0
0
0
0
0
0
0
0
0
0
0
0
0
0
0
0
0
0
0
0
0
0
0
0
0
0
0
0
0
0
0
0
0
0
0
0
0
0
0
0
0
0
0
0
0
0
0
0
0
0
0
0
0
0
0
0
0
0
0
0
0
0
0
0
0
0
0
0
0
0
0
0
0
0
0
0
0
0
0
0
0
0
0
0
0
0
0
0
0
0
0
0
0
0
0
0
0
0
0
0
0
1
0
0
0
0
0
0
0
0
0
0
0
0
0
0
0
0
0
0
0
0
0
0
0
0
0
0
0
0
0
0
0
0
0
0
0
0
0
0
0
0
0
0
0
0
0
0
0
0
0
0
0
0
0
0
0
0
0
0
0
0
0
0
0
0
0
0
0
0
0
0
0
0
0
0
0
0
0
0
0
0
0
1
0
0
0
0
0
0
0
1
0
0
0
0
0
0
0
0
0
0
0
0
0
0
0
0
0
0
0
0
0
0
0
0
0
0
0
0
0
0
0
0
0
0
0
0
0
1
0
0
0
0
0
0
0
0
0
0
0
0
0
0
0
0
0
0
0
0
0
1
0
0
0
0
0
0
0
0
0
0
0
0
1
1
0
0
0
0
0
0
0
0
0
0
0
0
0
0
0
1
1
0
1
0
0
0
0
0
0
0
0
0
1
0
0
0
0
0
0
1
0
0
0
0
0
0
0
0
0
0
1
0
0
0
0
1
0
1
0
0
0
0
0
0
0
1
0
0
0
1
0
0
0
1
0
1
1
0
0
1
1
0
0
0
1
0
0
0
1
0
0
0
0
0
0
0
0
0
1
0
0
0
0
0
0
1
0
0
0
0
0
0
0
0
0
0
0
0
0
0
0
0
0
0
0
0
0
0
0
0
0
0
0
1
0
0
1
0
0
0
0
0
0
0
0
0
0
0
0
0
0
0
0
0
0
1
0
0
1
0
0
0
0
0
0
0
0
0
0
0
1
0
0
1
0
0
0
0
0
0
0
0
0
0
0
1
1
0
0
0
0
0
0
0
0
0
0
0
0
1
0
0
0
0
0
0
0
0
0
0
0
0
0
0
0
0
0
1
0
0
0
0
0
0
0
0
0
0
0
0
0
0
0
0
0
1
0
0
0
0
0
0
0
0
0
0
0
0
0
0
0
0
0
0
0
0
0
0
0
0
0
0
0
0
0
0
0
0
0
0
0
0
0
0
0
0
1
0
0
0
0
0
0
0
0
0
0
0
0
0
0
0
0
0
0
0
0
0
0
0
0
0
0
0
0
0
0
0
0
0
0
0
0
0
0
0
0
0
0
0
0
0
1
0
0
0
0
0
0
0
0
0
0
0
0
0
0
0
0
0
0
0
0
0
0
0
0
0
0
0
0
0
0
0
0
0
0
0
0
0
0
0
0
0
0
0
0
0
0
0
1
0
0
0
0
0
0
0
0
0
0
1
0
0
0
0
0
0
0
0
0
0
0
0
0
0
0
1
0
0
1
0
0
0
0
0
0
0
0
0
0
0
0
0
0
0
0
0
0
0
0
0
0
0
1
0
0
0
0
0
0
0
0
0
0
0
0
0
0
0
0
0
0
0
0
0
0
0
0
0
0
0
0
0
0
0
0
0
0
0
1
0
0
0
0
0
0
0
0
0
0
0
0
0
0
0
0
0
0
0
0
0
0
0
0
0
0
0
0
0
0
0
0
0
0
0
0
0
0
0
0
0
0
0
0
0
0
0
0
0
0
0
0
0
0
0
0
0
0
0
0
0
0
0
0
0
0
0
0
0
0
0
0
0
0
0
0
1
0
0
0
0
0
0
0
0
0
0
0
0
0
0
0
0
0
0
0
0
0
0
0
0
0
0
0
0
0
0
0
0
0
0
0
0
0
0
0
1
0
0
0
0
0
0
0
0
0
0
0
0
1
1
0
0
0
0
0
0
0
0
0
0
0
0
0
0
0
0
0
0
0
0
0
0
0
0
0
0
0
0
0
0
0
0
0
0
0
0
0
0
0
0
0
0
0
0
0
0
0
0
0
0
0
0
0
0
0
0
0
0
0
0
0
0
0
0
0
0
0
0
0
0
0
0
0
0
0
0
0
0
0
0
0
0
0
0
0
0
0
0
0
0
0
0
0
0
0
0
0
0
0
0
0
1
0
1
0
0
0
0
0
0
0
1
1
1
1
0
0
0
0
0
0
0
0
0
0
0
0
0
0
0
0
0
0
0
0
0
0
0
0
0
0
0
0
1
1
0
0
0
0
0
0
0
0
0
0
0
0
0
0
0
0
0
0
1
0
0
0
0
0
0
0
1
1
0
1
1
0
0
1
0
0
0
0
0
0
0
1
0
1
0
0
0
0
0
0
0
0
0
0
0
0
0
0
0
0
0
0
0
0
0
0
0
0
0
0
0
1
1
0
0
0
1
1
0
0
0
0
1
0
0
1
0
1
0
0
0
0
0
1
0
0
0
1
0
0
0
0
0
0
0
0
0
0
0
0
0
0
0
0
0
0
0
0
0
0
0
0
0
0
0
1
0
0
0
0
0
0
1
0
0
0
0
0
0
0
0
0
0
0
0
0
0
0
0
0
0
0
0
0
0
0
0
0
0
0
0
0
1
0
1
0
0
0
0
0
0
0
1
0
0
0
0
0
0
0
0
0
0
0
1
0
0
0
0
0
0
0
0
0
1
0
0
0
0
0
0
0
1
0
0
0
0
0
0
0
1
0
0
0
0
0
0
0
0
0
0
0
0
0
0
0
0
0
0
0
1
0
1
0
0
0
0
0
1
0
0
0
0
0
0
0
0
0
0
0
0
0
0
0
0
0
0
0
0
0
0
0
0
0
1
0
1
0
0
0
0
0
0
0
0
0
1
0
0
0
0
0
1
0
0
0
0
0
0
0
0
0
0
0
0
0
0
0
1
0
0
0
0
0
0
0
0
1
0
0
0
0
0
0
0
0
0
0
0
0
0
0
0
0
0
0
0
0
0
0
0
0
0
0
0
0
0
0
1
0
0
0
0
0
0
0
0
0
0
0
0
0
0
0
0
1
0
0
0
0
0
0
0
0
1
0
0
0
0
0
0
0
0
0
1
0
0
0
0
0
1
0
0
0
0
0
0
0
0
0
0
0
0
0
0
0
0
0
0
0
1
0
0
0
0
0
0
1
0
0
0
0
0
0
0
0
1
0
0
0
0
0
0
0
0
0
0
0
0
0
0
1
0
0
1
0
0
0
1
0
0
0
0
0
0
0
0
0
0
0
0
0
0
0
0
1
0
0
0
0
0
0
0
0
0
0
1
0
1
0
0
0
0
0
0
1
0
0
0
0
0
0
0
0
0
0
0
0
0
0
0
0
0
0
0
0
0
0
0
0
0
0
0
1
1
0
0
0
0
0
0
1
0
0
0
0
0
0
0
0
0
0
0
0
0
1
0
0
0
0
0
0
0
1
0
0
0
0
0
0
0
0
0
0
0
0
0
0
0
0
0
0
0
0
0
0
0
0
0
0
0
1
0
0
0
0
0
0
0
0
0
0
1
0
0
1
0
0
0
0
0
0
0
0
0
0
0
0
0
0
0
0
0
0
0
0
0
0
0
0
0
0
0
0
0
1
0
0
0
0
0
0
0
1
0
0
0
0
0
0
0
1
0
0
0
0
1
0
0
0
0
0
0
0
0
0
0
0
1
0
1
0
0
0
1
0
				</DataArray>
				<DataArray type="Float64" Name="h" NumberOfComponents="1" Format="ascii">
0.8591546265
0.8591800044
0.8552490072
0.8573002957
0.8554809515
0.8562854169
0.8560364578
0.8592467713
0.8579419111
0.8611669884
0.8582117373
0.8558984034
0.8592610019
0.8592370778
0.8589640200
0.8608870034
0.8566514799
0.8608091396
0.8581015023
0.8583162607
0.8544984448
0.8594846825
0.8561377917
0.8549579667
0.8572875549
0.8631360889
0.8568250072
0.8498739342
0.8551616399
0.8597549892
0.8589603075
0.8567619928
0.8592043079
0.8553189856
0.8525397650
0.8541636203
0.8532089115
0.8551149135
0.8482823914
0.8539173224
0.8553623942
0.8507983379
0.8572954211
0.8538219242
0.8541646103
0.8513408188
0.8557957709
0.8521556310
0.8441136099
0.8441013055
0.8541160983
0.8529247697
0.8544355943
0.8476344309
0.8522130505
0.8560616241
0.8519859966
0.8508117556
0.8506205451
0.8494886374
0.8494022516
0.8503155771
0.8451989491
0.8534570444
0.8527256635
0.8470558838
0.8433595266
0.8452791622
0.8500174858
0.8509047282
0.8494559335
0.8530840243
0.8539520853
0.8476087629
0.8492887046
0.8444522399
0.8502858694
0.8486614746
0.8507482885
0.8460806389
0.8475880489
0.8463511683
0.8377545788
0.8444309521
0.8476393687
0.8435250777
0.8470468489
0.8428513352
0.8478901918
0.8411110780
0.8463416771
0.8447637032
0.8479475974
0.8430823351
0.8436205414
0.8442621649
0.8418849612
0.8473784935
0.8469382932
0.8467536089
0.8401528571
0.8483934845
0.8445133979
0.8514429307
0.8628523108
0.8424879817
0.8412138876
0.8431647760
0.8494347200
0.8445759408
0.8435471490
0.8424339265
0.8468480159
0.8457809083
0.8454531106
0.8400078815
0.8452866711
0.8622904564
0.8427344123
0.8463402409
0.8622824916
0.8425943573
0.8417641980
0.8635364711
0.8461154147
0.8425185357
0.8459783968
0.8638649179
0.8413297068
0.8394710090
0.8433144381
0.8419943418
0.8464415803
0.8386804593
0.8614106247
0.8438278904
0.8636030619
0.8370917050
0.8462964379
0.8604087888
0.8645823518
0.8625064956
0.8407510458
0.8585549553
0.8420797010
0.8448559728
0.8618486735
0.8306184756
0.8630444017
0.8259437312
0.8640027178
0.8356604693
0.8342001181
0.8259305153
0.8471193183
0.8352842560
0.8282054215
0.8636656711
0.8266628206
0.8659941180
0.8602420654
0.8311343669
0.8628978960
0.8647099368
0.8640336753
0.8354908435
0.8560144486
0.8621857657
0.8652520871
0.8328971626
0.8301762765
0.8662031840
0.8266028709
0.8644316722
0.8549831925
0.8196821918
0.8579151582
0.8283356149
0.8207930047
0.8653436854
0.8362891198
0.8516146849
0.8660924486
0.8407260784
0.8656042976
0.8683118916
0.8530061225
0.8227661841
0.8661477593
0.8691678492
0.8482427911
0.8211279020
0.8672587295
0.8497030874
0.8202128271
0.8316976798
0.8653369293
0.8451419945
0.8464615896
0.8219514666
0.8690616471
0.8397620441
0.8685866607
0.8222559901
0.8424583777
0.8663147173
0.8621475817
0.8643091934
0.8433416874
0.8582020371
0.8490942826
0.8675672515
0.8659259946
0.8673623594
0.8633264287
0.8460054958
0.8603403840
0.8660595502
0.8523751345
0.8666241671
0.8409869776
0.8423961835
0.8554957851
0.8420765438
0.8392584366
0.8242621315
0.8373781483
0.8399236342
0.8406355140
0.8405672161
0.8233036449
0.8427753635
0.8391396004
0.8220797283
0.8280628294
0.8408860002
0.8479962376
0.8622081420
0.8675832596
0.8581715122
0.8494522054
0.8643966362
0.8666063586
0.8573397422
0.8640271988
0.8618508917
0.8666562964
0.8511209453
0.8634897145
0.8659207909
0.8604324528
0.8524230832
0.8659324478
0.8452349045
0.8468297758
0.8673030153
0.8598472493
0.8632015065
0.8673758392
0.8427001643
0.8554325141
0.8399417142
0.8393981261
0.8414993271
0.8389263290
0.8294299076
0.8253021548
0.8417430848
0.8225560555
0.8423220562
0.8380093687
0.8543491462
0.8410132420
0.8403053828
0.8417217832
0.8420210839
0.8390931370
0.8403117390
0.8424195679
0.8396754822
0.8385339601
0.8228619379
0.8252642593
0.8292320891
0.8409010927
0.8424352945
0.8392485707
0.8624545563
0.8664988063
0.8665022555
0.8617091119
0.8488582140
0.8646768404
0.8642338052
0.8585652342
0.8510293552
0.8572182884
0.8637452501
0.8659489896
0.8673153233
0.8671601408
0.8631894818
0.8515300680
0.8490821887
0.8467137228
0.8607223392
0.8534631204
0.8596888351
0.8657692303
0.8421839766
0.8398713764
0.8402219147
0.8233481196
0.8440249462
0.8387825839
0.8420797505
0.8560722978
0.8412760509
0.8265950202
0.8544185844
0.8415798002
0.8395947274
0.8425791963
0.8306973490
0.8406124585
0.8392453173
0.8406477575
0.8263621242
0.8409981053
0.8423264489
0.8387366583
0.8305912687
0.8238786424
0.8450672569
0.8424394053
0.8412495319
0.8414409107
0.8619018335
0.8330165983
0.8596971326
0.8539223593
0.8578323058
0.8663546684
0.8510602623
0.8650688456
0.8630499800
0.8644270277
0.8665170626
0.8425696980
0.8565921648
0.8527200878
0.8496089344
0.8633496612
0.8658204577
0.8405718066
0.8615310073
0.8598090799
0.8556579030
0.8600356897
0.8511437312
0.8475558571
0.8347338779
0.8671702317
0.8531006169
0.8497085027
0.8642161351
0.8643055173
0.8631934319
0.8516834797
0.8670553263
0.8557317640
0.8494590056
0.8661333161
0.8282351266
0.8422417969
0.8426910002
0.8321711945
0.8683494937
0.8400255267
0.8460256346
0.8478288481
0.8418348541
0.8244826126
0.8576705794
0.8433261553
0.8554392549
0.8418689703
0.8406780110
0.8425029484
0.8737469114
0.8252777283
0.8495986684
0.8413823863
0.8756695472
0.8322689658
0.8432356552
0.8688532569
0.8708425547
0.8718365685
0.8753183780
0.8436807657
0.8395644287
0.8750451974
0.8426065870
0.8755026807
0.8277689203
0.8423693124
0.8443155452
0.8407311870
0.8744658573
0.8423274145
0.8601362877
0.8455399469
0.8626177128
0.8626156519
0.8386083952
0.8428157619
0.8593569261
0.8487976481
0.8507806154
0.8697189118
0.8687570602
0.8647804598
0.8456071384
0.8389167011
0.8461031665
0.8319751384
0.8663539875
0.8515748243
0.8547069853
0.8538510880
0.8409292697
0.8544313358
0.8463436821
0.8576358450
0.8504388845
0.8595801922
0.8447202200
0.8355391571
0.8741679264
0.8682013466
0.8674773809
0.8638466578
0.8613362764
0.8734871880
0.8610904290
0.8484087310
0.8708274206
0.8458416097
0.8565420500
0.8599939363
0.8282176007
0.8670648991
0.8541310142
0.8559400735
0.8687577677
0.8449482921
0.8511171071
0.8635485531
0.8499896025
0.8660078107
0.8540455494
0.8640068185
0.8260703933
0.8575507444
0.8433973917
0.8467835662
0.8457197061
0.8774465385
0.8654588992
0.8339925608
0.8619438184
0.8428852054
0.8600010017
0.8528527462
0.8430184800
0.8546779335
0.8769867837
0.8664960880
0.8681998857
0.8688967328
0.8594151403
0.8648375816
0.8295594980
0.8711422898
0.8622856791
0.8408815683
0.8699043287
0.8430470759
0.8736159612
0.8760984910
0.8488402435
0.8579803971
0.8663167551
0.8688576625
0.8728409858
0.8630273914
0.8649257073
0.8435746860
0.8704856728
0.8758708523
0.8678263712
0.8761290836
0.8718397933
0.8753187416
0.8608789577
0.8437667400
0.8670341102
0.8599834631
0.8773719600
0.8698999745
0.8594752096
0.8725432160
0.8619485201
0.8772941044
0.8665037191
0.8659467198
0.8710804640
0.8670270296
0.8646847299
0.8594822614
0.8656671404
0.8728217667
0.8328811000
0.8659600498
0.8620774572
0.8725362214
0.8690603763
0.8772896325
0.8629731955
0.8583860195
0.8640118659
0.8617990905
0.8666473159
0.8654641698
0.8831098018
0.8663233950
0.8630325814
0.8670426939
0.8772891056
0.8594224365
0.8832125031
0.8785371558
0.8669100907
0.8817926788
0.8653795115
0.8701336244
0.8600065300
0.8828223919
0.8765148798
0.8458861183
0.8803772069
0.8663850668
0.8816525820
0.8670062412
0.8806111784
0.8629752709
0.8744878068
0.8541010621
0.8471188008
0.8633517685
0.8722267778
0.8511119604
0.8648424968
0.8825324575
0.8447219355
0.8608833378
0.8467911753
0.8769774385
0.8282167380
0.8639665882
0.8748390191
0.8696201399
0.8736719051
0.8507910936
0.8675673891
0.8583487267
0.8774592700
0.8725442202
0.8682798309
0.8684828870
0.8458457494
0.8758715271
0.8741430394
0.8777910594
0.8681135104
0.8355429008
0.8455502872
0.8484200681
0.8791711640
0.8319810526
0.8850223993
0.8749962764
0.8840082629
0.8820169267
0.8541406746
0.8682861426
0.8671873371
0.8583303581
0.8775153660
0.8773778233
0.8683609115
0.8585830099
0.8684287605
0.8461070352
0.8842905947
0.8876755099
0.8679103361
0.8428107258
0.8720435083
0.8873365032
0.8679068144
0.8704135078
0.8763900403
0.8774590152
0.8682925229
0.8786965986
0.8666527753
0.8639697085
0.8629770025
0.8659643074
0.8422834602
0.8795294777
0.8677525955
0.8670345432
0.8684482466
0.8750957618
0.8779316174
0.8670128591
0.8853337536
0.8876761508
0.8783394180
0.8873491695
0.8629790291
0.8646882985
0.8633551587
0.8663898574
0.8800323163
0.8757834897
0.8791360190
0.8782362665
0.8669186043
0.8885234735
0.8871638210
0.8702471389
0.8543931586
0.8722937826
0.8816525075
0.8862373268
0.8647898129
0.8757575470
0.8695980187
0.8673517094
0.8684874834
0.8729369478
0.8700439787
0.8704458426
0.8653835102
0.8801467714
0.8692678726
0.8674465576
0.8679914765
0.8790440703
0.8793315975
0.8731392534
0.8798122608
0.8719798352
0.8698513254
0.8676626866
0.8688821550
0.8677595697
0.8681228255
0.8831102784
0.8884090564
0.8858401650
0.8814924090
0.8817351315
0.8814134369
0.8840762260
0.8797045691
0.8808247315
0.8808650370
0.8831564041
0.8829537847
0.8843242310
0.8863787073
0.8791574529
0.8829613466
0.8789335900
0.8824982898
0.8823753081
0.8800064920
0.8757758380
0.8773924630
0.8803982940
0.8829917301
0.8840670913
0.8788315176
0.8812499969
0.8721789959
0.8845194411
0.8838892660
0.8745792071
0.8757845792
0.8762847629
0.8720429256
0.8856405394
0.8803794560
0.8779799320
0.8755689832
0.8776613438
0.8854600807
0.8763905504
0.8827101076
0.8744259450
0.8722299010
0.8710838677
0.8724475648
0.8731059696
0.8709899993
0.8650410641
0.8696296956
0.8571454202
0.8569539995
0.8569781003
0.8571687493
0.8569005892
0.8558849220
0.8581936348
0.8584971978
0.8561357481
0.8562727356
0.8554959826
0.8561528644
0.8579587272
0.8589418283
0.8560172044
0.8601389426
0.8585189394
0.8569158923
0.8604330332
0.8607916117
0.8573181617
0.8552619696
0.8580765488
0.8597370198
0.8609468971
0.8558782921
0.8592678287
0.8631254540
0.8572709809
0.8611851384
0.8600961834
0.8592855060
0.8552012207
0.8607678047
0.8581405012
0.8601577938
0.8589423841
0.8604557822
0.8553091188
0.8591788198
0.8567304901
0.8587013633
0.8539058873
0.8496262281
0.8566650835
0.8609054614
0.8572656792
0.8482555432
0.8558904866
0.8609644858
0.8553412895
0.8592548982
0.8583325145
0.8552126999
0.8561670531
0.8511781565
0.8595075702
0.8541249958
0.8601193473
0.8545082363
0.8581718807
0.8577769648
0.8486273743
0.8521462109
0.8607877901
0.8541507754
0.8541068162
0.8557607289
0.8498957487
0.8549706123
0.8551827447
0.8519615047
0.8508360948
0.8568574429
0.8523081073
0.8619165653
0.8496525306
0.8516698703
0.8522208365
0.8587283306
0.8544056932
0.8511858304
0.8444507094
0.8451802338
0.8578053164
0.8541364187
0.8535723678
0.8486423116
0.8541789016
0.8526959618
0.8551480676
0.8516882539
0.8525506111
0.8452087295
0.8452768091
0.8496390411
0.8532185839
0.8534414749
0.8516778149
0.8510861409
0.8501345077
0.8538486219
0.8476066201
0.8491539042
0.8530736033
0.8539167357
0.8504697356
0.8507960799
0.8517774895
0.8523180928
0.8499595367
0.8522308531
0.8508139661
0.8502796299
0.8494517496
0.8476018800
0.8492853074
0.8508663467
0.8543779136
0.8500136346
0.8530086746
0.8619335111
0.8508987146
0.8535836409
0.8516972395
0.8459121270
0.8496417550
0.8448930414
0.8512726943
0.8440073620
0.8441041755
0.8529444786
0.8451771051
0.8513646797
0.8463385463
0.8444273830
0.8488012968
0.8445016558
0.8441052036
0.8494036898
0.8503192067
0.8544114762
0.8487705670
0.8475979024
0.8506261141
0.8507374286
0.8491586190
0.8461302547
0.8528277677
0.8510934959
0.8530188795
0.8507016277
0.8522240700
0.8501264193
0.8504744334
0.8499622337
0.8560941675
0.8472851157
0.8487114833
0.8508266822
0.8476367574
0.8501403304
0.8494923381
0.8447405662
0.8508187415
0.8518087114
0.8479492703
0.8448897083
0.8514340912
0.8469154800
0.8488006341
0.8491991946
0.8512787255
0.8483950122
0.8429992558
0.8482998788
0.8440163746
0.8470728164
0.8401675856
0.8433674125
0.8516881812
0.8473522846
0.8490068186
0.8442445856
0.8496610684
0.8440179115
0.8467599151
0.8424804475
0.8459334304
0.8364490958
0.8473166508
0.8494336265
0.8424575008
0.8487715366
0.8487139226
0.8468528229
0.8507075803
0.8444792306
0.8435851890
0.8507435756
0.8486626716
0.8528602954
0.8454303897
0.8461521191
0.8435242879
0.8445667621
0.8501296691
0.8482966127
0.8364452371
0.8470050880
0.8490066447
0.8435483376
0.8425931956
0.8479485958
0.8516975808
0.8635861439
0.8496575804
0.8440147547
0.8476653626
0.8461087599
0.8470424725
0.8377487219
0.8475853820
0.8452850960
0.8507556530
0.8430136134
0.8622690930
0.8428564117
0.8492268415
0.8454207818
0.8419805848
0.8430270859
0.8631320390
0.8425351775
0.8473937371
0.8449644849
0.8478844292
0.8436361148
0.8429605287
0.8400842592
0.8410957367
0.8463298787
0.8433473880
0.8510136892
0.8461226411
0.8459775186
0.8436152710
0.8394800390
0.8445207089
0.8398294507
0.8428319872
0.8470113122
0.8635980000
0.8479413038
0.8443833310
0.8613952903
0.8438406213
0.8464507748
0.8628655109
0.8418978496
0.8420582307
0.8418742943
0.8624910609
0.8465558202
0.8631430616
0.8400745424
0.8457669961
0.8431475859
0.8623824031
0.8510205905
0.8449533276
0.8454546266
0.8630309714
0.8430300193
0.8407614116
0.8642498176
0.8399974852
0.8473881392
0.8448672707
0.8433338077
0.8412334325
0.8626243910
0.8431308171
0.8416127082
0.8336027051
0.8398193843
0.8443692904
0.8644068199
0.8385696955
0.8407107677
0.8458064698
0.8463362895
0.8428565356
0.8356720821
0.8623044976
0.8447007309
0.8427209846
0.8610466118
0.8639930593
0.8342080413
0.8471236543
0.8623963006
0.8642637885
0.8621749787
0.8640219265
0.8465519470
0.8290427582
0.8626384048
0.8643037224
0.8273240370
0.8411351637
0.8418978932
0.8635512897
0.8413198410
0.8602243765
0.8629933650
0.8417890137
0.8433023206
0.8607014338
0.8628893334
0.8426984900
0.8311351297
0.8638781402
0.8266665458
0.8457993197
0.8636146542
0.8386694890
0.8327413040
0.8405768478
0.8406977911
0.8372258138
0.8370828954
0.8266119678
0.8601122183
0.8643430037
0.8462899354
0.8610621918
0.8416407137
0.8644167315
0.8335921355
0.8431561002
0.8446912094
0.8329006467
0.8430540854
0.8385603821
0.8301878954
0.8644212634
0.8259415785
0.8660814281
0.8406471677
0.8630066430
0.8643160765
0.8368719930
0.8302050804
0.8250116649
0.8585777785
0.8306187984
0.8618590744
0.8653319684
0.8273256776
0.8607182657
0.8411471517
0.8659511019
0.8645948854
0.8362927069
0.8426890265
0.8578923568
0.8443891964
0.8604263006
0.8290387726
0.8654911274
0.8661355337
0.8352790192
0.8281961990
0.8643524920
0.8397750663
0.8327357005
0.8618587131
0.8601284771
0.8405944244
0.8655921397
0.8372166430
0.8259199425
0.8636759530
0.8430443789
0.8529802733
0.8400841207
0.8202247714
0.8560407745
0.8655034485
0.8368690581
0.8316922032
0.8659621480
0.8250049245
0.8443812602
0.8320773201
0.8666328156
0.8301993251
0.8406651657
0.8646979407
0.8211392361
0.8405033328
0.8647218046
0.8354881614
0.8496813257
0.8270238416
0.8660057169
0.8397404083
0.8204205105
0.8662152801
0.8685756049
0.8550082751
0.8222649325
0.8397958359
0.8652654981
0.8690503486
0.8618743332
0.8464372379
0.8212865946
0.8207821283
0.8652105497
0.8666435134
0.8647103964
0.8675564805
0.8270278223
0.8320813131
0.8659983908
0.8331225858
0.8516384161
0.8404928294
0.8196704009
0.8401069006
0.8680750760
0.8682915367
0.8283434503
0.8659157200
0.8433162497
0.8482607969
0.8233090683
0.8204083118
0.8691790982
0.8212746690
0.8235676255
0.8213432322
0.8407483508
0.8683234919
0.8227570069
0.8409700046
0.8666439469
0.8618416666
0.8651896752
0.8640211694
0.8451737558
0.8683029063
0.8433955995
0.8669926965
0.8573226061
0.8651971884
0.8652210629
0.8479849757
0.8672693915
0.8676048207
0.8331307494
0.8653473701
0.8672055631
0.8631950513
0.8649726795
0.8452206191
0.8598332256
0.8659203296
0.8511051069
0.8680870271
0.8675702969
0.8660081455
0.8243718865
0.8431234544
0.8424752943
0.8235613447
0.8424369850
0.8543315271
0.8213307194
0.8416859705
0.8396569974
0.8252616841
0.8385388993
0.8327657887
0.8392253675
0.8417234670
0.8410230301
0.8219397437
0.8427029416
0.8389069694
0.8225679079
0.8342605518
0.8294151742
0.8402755491
0.8491084554
0.8617015407
0.8652023383
0.8666338610
0.8572063396
0.8488465691
0.8652078825
0.8434147006
0.8652006340
0.8666908976
0.8449007025
0.8642293114
0.8664862887
0.8670030342
0.8582189688
0.8643177942
0.8621566206
0.8663254062
0.8523927884
0.8631840143
0.8657592272
0.8676180965
0.8596783628
0.8515194634
0.8660708793
0.8460276920
0.8466983932
0.8650361111
0.8670668159
0.8603541738
0.8649824076
0.8633339686
0.8672197507
0.8427591026
0.8544070904
0.8452962450
0.8412283518
0.8392305310
0.8409668386
0.8391647620
0.8342725578
0.8280728474
0.8263541763
0.8406550827
0.8220664966
0.8339103200
0.8423284419
0.8387419634
0.8555137564
0.8243698520
0.8405543729
0.8409125945
0.8420933431
0.8440018403
0.8395787783
0.8398491409
0.8420540053
0.8392818239
0.8373751326
0.8327761223
0.8233594211
0.8431425161
0.8242605971
0.8306774562
0.8412869063
0.8354046383
0.8423796258
0.8399463540
0.8618952441
0.8653747419
0.8666191338
0.8667003507
0.8663451503
0.8622154738
0.8494635973
0.8479533389
0.8644223537
0.8449207971
0.8644024382
0.8578240166
0.8510471070
0.8581828634
0.8652109725
0.8633444352
0.8658132188
0.8670796546
0.8669759974
0.8634956738
0.8524355482
0.8496882702
0.8652264421
0.8468437260
0.8650422748
0.8600275858
0.8530922475
0.8604421818
0.8659324955
0.8442949910
0.8403368969
0.8407189349
0.8228491975
0.8420411819
0.8395716161
0.8424286300
0.8554316461
0.8408917392
0.8354163298
0.8353607528
0.8277567770
0.8491153675
0.8554443548
0.8413622883
0.8391127571
0.8426001902
0.8292468874
0.8418513273
0.8394188900
0.8406658087
0.8253047886
0.8453145412
0.8360644435
0.8415302110
0.8423202754
0.8380069409
0.8321520751
0.8244913188
0.8478064946
0.8422186389
0.8399618235
0.8418433875
0.8339222774
0.8386061781
0.8538440784
0.8523089214
0.8487923846
0.8624607199
0.8653810676
0.8348401063
0.8444512917
0.8593507226
0.8597487159
0.8546949679
0.8585732844
0.8523317365
0.8456110988
0.8369026392
0.8665131160
0.8510416500
0.8479690667
0.8647753561
0.8626097389
0.8646821401
0.8601322643
0.8671767217
0.8504350016
0.8663457183
0.8549605018
0.8495142401
0.8656958098
0.8409976596
0.8537054313
0.8540302607
0.8480749200
0.8637507118
0.8659579450
0.8310273811
0.8424601002
0.8610838555
0.8569877339
0.8559327703
0.8607296620
0.8531753654
0.8463452481
0.8328875053
0.8669862921
0.8534724834
0.8491013423
0.8654914680
0.8638414331
0.8652316567
0.8613081196
0.8659782461
0.8496714856
0.8668600967
0.8535231189
0.8476343083
0.8660010398
0.8727018313
0.8295477905
0.8541625416
0.8424611992
0.8796478601
0.8364602044
0.8430383365
0.8306069008
0.8681948136
0.8694684081
0.8707972864
0.8408876173
0.8736126848
0.8795129511
0.8488246390
0.8360708684
0.8450858746
0.8732412338
0.8414306280
0.8732404866
0.8238667196
0.8575451122
0.8435625962
0.8560805603
0.8406286775
0.8406655379
0.8779533534
0.8437541391
0.8761270485
0.8260744911
0.8528386347
0.8416040304
0.8773781031
0.8339813529
0.8433846441
0.8353696876
0.8679700493
0.8684593564
0.8725106546
0.8375113008
0.8737378491
0.8777281620
0.8457041365
0.8387792266
0.8491381202
0.8775142757
0.8425785305
0.8774462819
0.8266004375
0.8428883797
0.8422024666
0.8402346773
0.8769854145
0.8430120457
0.8571202499
0.8591941159
0.8449023875
0.8383277309
0.8710814092
0.8597522951
0.8656658502
0.8665654632
0.8630556068
0.8369449724
0.8631772353
0.8417514032
0.8369431885
0.8762303649
0.8597034049
0.8475693405
0.8481914057
0.8671777260
0.8512258095
0.8659771816
0.8709032055
0.8650743162
0.8442046629
0.8365254283
0.8450108392
0.8541041140
0.8475601436
0.8583858021
0.8303701109
0.8665263260
0.8552000649
0.8495131073
0.8539329848
0.8643077698
0.8697190685
0.8458914151
0.8471236551
0.8512324962
0.8617956781
0.8428103533
0.8523361488
0.8444469633
0.8538092146
0.8657019428
0.8523291843
0.8549655593
0.8487277030
0.8385435064
0.8565984657
0.8565435337
0.8439124675
0.8515750325
0.8344706097
0.8722961083
0.8631952608
0.8656765676
0.8647965366
0.8642214855
0.8348392134
0.8640596001
0.8396297878
0.8750049146
0.8615371708
0.8475571034
0.8462848741
0.8714230417
0.8714233289
0.8685804562
0.8654970594
0.8425661946
0.8405732736
0.8450983013
0.8539852956
0.8575235077
0.8271665086
0.8668701985
0.8511862679
0.8576309759
0.8511493861
0.8556650844
0.8659792742
0.8422906266
0.8487746480
0.8516911648
0.8607974264
0.8395869858
0.8535262856
0.8476318976
0.8525892320
0.8661409003
0.8527378200
0.8569912767
0.8496121296
0.8641827778
0.8252675696
0.8704137614
0.8585904351
0.8375129156
0.8576767060
0.8689017228
0.8432548618
0.8737410686
0.8748396235
0.8453329407
0.8436945262
0.8755022310
0.8583381078
0.8661556354
0.8694728394
0.8656765622
0.8322810234
0.8766736626
0.8617271338
0.8647946521
0.8423639883
0.8713231686
0.8747862130
0.8654078246
0.8727034443
0.8708463142
0.8733674590
0.8733676289
0.8590126320
0.8496155640
0.8423359481
0.8518467364
0.8744673980
0.8797165825
0.8666828769
0.8683548757
0.8583417465
0.8775167018
0.8703088731
0.8721464182
0.8575069664
0.8694223969
0.8713103910
0.8650509623
0.8282413286
0.8679124465
0.8588783070
0.8400208852
0.8694231114
0.8427056722
0.8725144108
0.8749588902
0.8460406599
0.8797171213
0.8543984661
0.8664856105
0.8684641034
0.8659400906
0.8364659712
0.8749935829
0.8630560413
0.8614332250
0.8433337539
0.8703133920
0.8736820465
0.8648392012
0.8737491665
0.8708008761
0.8777289966
0.8721816369
0.8603235648
0.8541789560
0.8425121299
0.8512066994
0.8779552479
0.8668245473
0.8679754211
0.8700676664
0.8576689503
0.8766091052
0.8688482430
0.8713190064
0.8580054370
0.8702144501
0.8808213476
0.8661617773
0.8617320412
0.8762293966
0.8666913690
0.8631790153
0.8741669625
0.8576778114
0.8857962850
0.8688307218
0.8793297960
0.8668156765
0.8835937128
0.8448219660
0.8655333979
0.8629842917
0.8709243676
0.8580128139
0.8813254152
0.8629865218
0.8496767801
0.8709024986
0.8768269337
0.8442080331
0.8310257238
0.8772945729
0.8613125303
0.8448182989
0.8799078194
0.8662645090
0.8591932981
0.8463450154
0.8795840444
0.8709216960
0.8571143488
0.8668421163
0.8665674266
0.8557369827
0.8758731480
0.8824294796
0.8463474149
0.8634743897
0.8739167405
0.8330174570
0.8564162345
0.8659790082
0.8559023935
0.8484038959
0.8649186306
0.8735096656
0.8559030263
0.8515023150
0.8641878247
0.8851943115
0.8590683584
0.8666203445
0.8656821595
0.8494547584
0.8837053873
0.8664927684
0.8630611862
0.8790024532
0.8668344971
0.8647985956
0.8758721263
0.8690590840
0.8575153593
0.8839996918
0.8682011222
0.8797846810
0.8671450032
0.8831545725
0.8659236811
0.8710969044
0.8590179158
0.8839871272
0.8626157925
0.8635516597
0.8734859492
0.8776587170
0.8347268912
0.8620772020
0.8428061481
0.8817047686
0.8665166185
0.8613372478
0.8817382327
0.8716622619
0.8668244273
0.8685811268
0.8484104629
0.8790029013
0.8803594371
0.8652168632
0.8755663960
0.8565410558
0.8499835909
0.8649319142
0.8738077472
0.8565402139
0.8538036135
0.8650561791
0.8829026160
0.8599961728
0.8667244926
0.8659459431
0.8439108806
0.8603281098