<VTKFile type="UnstructuredGrid" version="0.1">
	<UnstructuredGrid>
		<Piece NumberOfPoints="1862" NumberOfCells="3498">
			<CellData>
				<DataArray type="Int32" Name="type" NumberOfComponents="1" Format="ascii">
0
0
0
0
0
0
0
0
0
0
0
0
0
0
0
0
1
0
0
1
0
0
0
0
0
0
0
0
0
0
0
0
0
1
0
0
0
0
0
0
0
0
0
0
0
0
0
0
0
0
1
0
0
0
0
0
0
0
0
0
0
1
0
0
0
0
0
0
0
0
0
0
0
0
0
0
0
0
0
0
0
0
0
0
0
0
0
0
0
0
0
0
0
0
0
0
0
0
0
0
0
0
0
0
0
0
0
0
0
0
0
0
0
0
0
0
0
0
0
0
0
0
0
1
0
0
0
0
0
0
0
0
0
0
0
0
0
0
0
0
0
0
0
0
0
0
0
0
0
0
0
1
0
1
1
0
0
0
0
0
0
0
0
0
0
0
0
0
1
0
1
0
0
0
0
1
0
0
0
0
0
0
0
0
1
1
0
0
0
0
0
1
0
0
0
0
0
0
0
0
1
0
0
0
0
0
0
0
0
0
0
0
0
0
0
0
0
0
0
0
0
0
0
0
0
0
0
0
0
0
0
0
0
1
0
0
0
0
0
0
0
0
0
0
0
0
0
0
0
0
0
0
0
0
0
0
0
0
0
0
0
0
0
0
0
0
0
0
0
0
0
0
0
0
0
0
0
0
0
0
0
1
0
0
0
0
0
0
0
0
0
0
0
0
0
0
0
0
0
0
0
0
0
0
0
0
0
0
0
0
0
0
0
0
0
0
0
0
0
0
0
0
0
0
0
0
0
0
0
0
0
0
1
0
0
0
0
0
0
0
0
0
0
0
0
0
0
0
0
0
0
0
0
0
0
0
0
0
0
0
0
0
0
0
0
0
0
0
0
0
0
0
0
0
0
0
0
0
0
0
0
0
0
0
0
0
0
0
0
0
1
0
0
0
0
0
0
0
0
0
0
0
0
0
0
0
0
0
0
0
0
0
0
0
0
0
0
0
0
0
0
0
0
0
0
0
0
0
0
0
0
0
0
0
0
0
0
0
0
0
0
0
0
0
0
0
0
0
0
0
0
0
0
0
0
0
0
0
0
0
0
0
0
0
0
0
0
0
0
0
0
0
0
0
0
0
0
0
0
0
0
0
0
0
0
0
0
0
0
0
0
0
0
0
0
0
0
0
0
0
0
0
0
0
0
0
0
0
0
0
0
0
0
0
0
0
0
0
0
0
0
0
0
1
0
0
0
0
0
0
0
0
0
0
0
0
0
0
0
0
0
0
0
1
0
0
0
0
0
0
0
0
0
0
0
0
0
0
0
0
0
0
0
0
0
0
0
0
0
0
0
0
0
0
0
0
0
0
0
0
0
0
0
0
0
0
0
0
0
0
0
0
0
0
0
0
0
1
0
0
0
0
0
0
0
0
0
0
0
0
0
0
0
0
0
0
0
0
0
0
0
1
0
0
0
0
0
0
0
0
0
0
0
0
0
0
0
0
0
0
0
1
0
0
0
1
0
0
0
0
0
0
0
0
0
0
0
0
0
0
0
0
0
0
0
0
0
0
0
0
0
1
0
0
0
0
0
0
0
1
0
0
0
0
0
0
0
0
0
0
0
0
0
0
0
0
0
0
0
0
0
0
0
0
0
0
1
0
0
0
0
0
0
0
1
0
0
0
0
0
0
1
0
0
0
0
0
0
0
0
0
0
0
0
0
0
0
0
0
0
0
0
0
0
0
0
0
0
0
0
0
0
0
0
0
0
0
0
0
0
1
0
0
0
0
0
1
0
0
0
0
0
0
0
1
0
0
0
0
0
0
0
0
0
0
0
0
0
1
0
0
0
0
0
0
0
0
0
0
0
0
0
0
0
0
0
0
0
0
0
0
0
0
0
0
0
0
0
0
0
0
0
0
0
0
0
0
0
0
0
0
0
0
0
0
0
0
0
0
0
0
0
1
0
0
0
0
0
0
0
0
0
0
0
0
0
0
0
0
0
0
0
1
0
0
0
0
0
0
0
0
0
1
0
0
0
0
0
0
0
0
0
0
0
0
0
0
0
0
0
0
0
0
0
0
0
0
0
0
0
0
0
1
0
1
0
0
0
0
0
0
0
0
0
0
0
0
0
0
0
0
0
0
0
0
0
0
0
0
0
0
0
1
0
0
0
1
0
0
0
0
0
0
0
0
0
0
0
0
0
0
0
0
0
0
0
0
0
0
0
0
0
0
0
0
1
0
0
0
0
0
0
0
0
0
0
0
0
0
0
0
0
0
0
0
0
0
0
0
0
0
1
0
0
0
0
0
0
0
0
0
0
0
0
0
0
0
0
0
0
0
0
0
0
0
1
0
0
0
0
0
0
1
0
0
0
0
0
0
0
0
0
0
0
1
0
0
0
0
0
0
0
0
0
0
0
0
0
0
0
0
0
0
0
0
1
0
0
0
0
0
0
0
0
0
0
0
1
0
0
0
0
0
0
0
0
0
0
0
0
0
0
0
0
0
0
0
0
0
1
0
0
0
0
0
0
0
0
0
1
1
0
1
0
1
0
0
0
0
0
0
0
0
0
0
0
1
0
0
0
0
0
1
1
0
0
0
0
0
0
1
0
0
0
0
0
1
1
1
0
0
0
0
0
0
0
0
0
0
0
0
1
1
0
0
1
0
0
0
0
0
1
0
0
0
1
0
1
0
0
0
0
0
0
0
1
0
0
0
0
0
0
0
1
0
0
1
0
0
0
0
0
0
0
0
0
0
0
0
0
0
0
1
0
0
0
0
0
0
0
0
0
0
0
0
0
0
0
0
0
0
0
0
0
0
0
0
0
0
0
0
0
0
0
0
0
0
0
0
1
0
0
0
0
0
0
1
0
0
0
1
0
0
0
0
0
0
0
0
0
0
0
1
0
0
0
0
0
0
0
0
0
0
0
0
0
0
0
0
0
0
0
0
0
0
0
0
0
0
0
0
0
0
0
0
0
0
0
0
0
0
0
0
1
1
0
0
0
0
0
0
0
0
0
0
0
0
0
1
0
0
0
0
0
0
0
0
0
0
0
0
0
0
0
0
0
0
0
0
0
0
0
0
0
0
0
0
0
0
0
0
0
0
0
0
0
0
0
0
0
0
0
0
0
0
0
0
0
0
0
0
0
0
0
0
0
0
0
0
0
0
0
0
0
0
0
0
0
0
0
0
1
1
0
0
0
0
0
0
0
0
1
0
0
0
0
0
0
0
0
0
0
0
0
0
0
0
0
0
0
0
0
0
0
0
1
0
0
0
0
0
0
0
0
0
0
0
0
0
0
0
0
1
0
0
0
0
0
0
0
0
0
0
0
0
0
0
0
0
0
0
0
0
0
0
0
0
0
0
0
0
0
0
0
0
0
0
0
0
0
0
0
0
0
0
0
0
0
0
0
0
0
0
0
0
0
0
0
0
0
0
0
0
0
0
0
0
0
0
0
0
0
0
0
0
0
0
0
0
0
0
0
0
0
0
0
0
0
0
0
0
0
0
1
1
0
0
0
0
0
1
0
0
0
0
0
0
0
0
0
0
0
0
1
0
0
0
0
0
0
0
0
0
0
0
0
0
0
0
0
0
0
0
0
0
0
0
0
0
0
0
0
0
0
0
0
0
0
0
0
0
0
0
0
0
0
0
0
0
0
0
0
0
0
0
0
0
1
0
1
0
0
0
0
0
0
0
0
0
0
0
0
0
0
0
0
0
0
1
0
0
0
0
0
0
0
0
0
0
0
0
0
0
0
0
0
0
0
0
0
0
0
0
0
0
0
0
0
0
0
0
0
0
0
0
0
0
0
0
0
0
0
0
0
0
0
0
0
0
0
0
0
0
0
0
0
0
0
0
0
0
0
0
0
0
0
0
0
0
1
0
0
0
0
0
0
0
0
0
0
1
0
0
0
0
0
0
0
0
0
0
0
0
0
0
0
0
0
0
0
0
0
0
0
0
0
0
0
0
0
0
0
0
0
0
0
0
0
1
0
0
0
0
0
0
0
0
0
0
0
0
0
0
0
0
0
0
0
0
0
0
0
0
0
0
0
0
0
0
0
0
0
0
0
0
0
0
0
0
0
0
0
0
0
0
0
0
0
0
0
0
0
0
0
0
0
0
0
0
0
0
0
0
0
0
0
0
0
0
0
0
0
0
0
0
0
0
0
0
0
1
0
0
0
0
0
0
0
0
0
0
0
0
0
0
0
0
0
0
0
0
0
0
0
0
0
0
0
0
0
0
0
0
0
0
0
0
0
0
0
0
0
0
0
0
0
0
0
0
0
0
0
0
0
0
0
0
0
0
0
0
0
0
0
0
0
0
0
0
0
0
0
0
0
0
0
0
0
0
0
0
0
0
0
0
0
0
0
0
0
0
0
0
0
0
0
0
0
0
0
0
0
0
0
0
0
0
0
0
0
0
0
0
0
0
0
0
0
0
0
0
0
0
0
1
0
0
0
0
0
0
0
0
0
0
0
0
0
0
0
0
0
0
0
0
0
0
0
0
0
0
0
0
0
0
0
0
0
0
0
0
0
0
0
0
0
0
0
0
0
0
0
0
0
0
0
0
0
0
0
0
0
0
0
0
0
0
0
0
0
0
0
0
0
0
0
0
0
0
0
0
0
0
0
0
0
1
0
0
0
0
0
0
0
1
0
0
0
0
0
0
0
0
0
0
0
0
0
0
0
0
0
0
0
0
0
0
0
0
0
0
0
0
0
0
0
0
0
0
0
0
0
1
0
0
0
0
0
0
0
0
0
0
0
0
0
0
0
0
0
0
0
0
0
1
0
0
0
0
0
0
0
0
0
0
0
0
1
1
0
0
0
0
0
0
0
0
0
0
0
0
0
0
0
1
1
0
1
0
0
0
0
0
0
0
0
0
1
0
0
0
0
0
0
1
0
0
0
0
0
0
0
0
0
0
1
0
0
0
0
1
0
1
0
0
0
0
0
0
0
1
0
0
0
1
0
0
0
1
0
1
1
0
0
1
1
0
0
0
1
0
0
0
1
0
0
0
0
0
0
0
0
0
1
0
0
0
0
0
0
1
0
0
0
0
0
0
0
0
0
0
0
0
0
0
0
0
0
0
0
0
0
0
0
0
0
0
0
1
0
0
1
0
0
0
0
0
0
0
0
0
0
0
0
0
0
0
0
0
0
1
0
0
1
0
0
0
0
0
0
0
0
0
0
0
1
0
0
1
0
0
0
0
0
0
0
0
0
0
0
1
1
0
0
0
0
0
0
0
0
0
0
0
0
1
0
0
0
0
0
0
0
0
0
0
0
0
0
0
0
0
0
1
0
0
0
0
0
0
0
0
0
0
0
0
0
0
0
0
0
1
0
0
0
0
0
0
0
0
0
0
0
0
0
0
0
0
0
0
0
0
0
0
0
0
0
0
0
0
0
0
0
0
0
0
0
0
0
0
0
0
1
0
0
0
0
0
0
0
0
0
0
0
0
0
0
0
0
0
0
0
0
0
0
0
0
0
0
0
0
0
0
0
0
0
0
0
0
0
0
0
0
0
0
0
0
0
1
0
0
0
0
0
0
0
0
0
0
0
0
0
0
0
0
0
0
0
0
0
0
0
0
0
0
0
0
0
0
0
0
0
0
0
0
0
0
0
0
0
0
0
0
0
0
0
1
0
0
0
0
0
0
0
0
0
0
1
0
0
0
0
0
0
0
0
0
0
0
0
0
0
0
1
0
0
1
0
0
0
0
0
0
0
0
0
0
0
0
0
0
0
0
0
0
0
0
0
0
0
1
0
0
0
0
0
0
0
0
0
0
0
0
0
0
0
0
0
0
0
0
0
0
0
0
0
0
0
0
0
0
0
0
0
0
0
1
0
0
0
0
0
0
0
0
0
0
0
0
0
0
0
0
0
0
0
0
0
0
0
0
0
0
0
0
0
0
0
0
0
0
0
0
0
0
0
0
0
0
0
0
0
0
0
0
0
0
0
0
0
0
0
0
0
0
0
0
0
0
0
0
0
0
0
0
0
0
0
0
0
0
0
0
1
0
0
0
0
0
0
0
0
0
0
0
0
0
0
0
0
0
0
0
0
0
0
0
0
0
0
0
0
0
0
0
0
0
0
0
0
0
0
0
1
0
0
0
0
0
0
0
0
0
0
0
0
1
1
0
0
0
0
0
0
0
0
0
0
0
0
0
0
0
0
0
0
0
0
0
0
0
0
0
0
0
0
0
0
0
0
0
0
0
0
0
0
0
0
0
0
0
0
0
0
0
0
0
0
0
0
0
0
0
0
0
0
0
0
0
0
0
0
0
0
0
0
0
0
0
0
0
0
0
0
0
0
0
0
0
0
0
0
0
0
0
0
0
0
0
0
0
0
0
0
0
0
0
0
0
1
0
1
0
0
0
0
0
0
0
1
1
1
1
0
0
0
0
0
0
0
0
0
0
0
0
0
0
0
0
0
0
0
0
0
0
0
0
0
0
0
0
1
1
0
0
0
0
0
0
0
0
0
0
0
0
0
0
0
0
0
0
1
0
0
0
0
0
0
0
1
1
0
1
1
0
0
1
0
0
0
0
0
0
0
1
0
1
0
0
0
0
0
0
0
0
0
0
0
0
0
0
0
0
0
0
0
0
0
0
0
0
0
0
0
1
1
0
0
0
1
1
0
0
0
0
1
0
0
1
0
1
0
0
0
0
0
1
0
0
0
1
0
0
0
0
0
0
0
0
0
0
0
0
0
0
0
0
0
0
0
0
0
0
0
0
0
0
0
1
0
0
0
0
0
0
1
0
0
0
0
0
0
0
0
0
0
0
0
0
0
0
0
0
0
0
0
0
0
0
0
0
0
0
0
0
1
0
1
0
0
0
0
0
0
0
1
0
0
0
0
0
0
0
0
0
0
0
1
0
0
0
0
0
0
0
0
0
1
0
0
0
0
0
0
0
1
0
0
0
0
0
0
0
1
0
0
0
0
0
0
0
0
0
0
0
0
0
0
0
0
0
0
0
1
0
1
0
0
0
0
0
1
0
0
0
0
0
0
0
0
0
0
0
0
0
0
0
0
0
0
0
0
0
0
0
0
0
1
0
1
0
0
0
0
0
0
0
0
0
1
0
0
0
0
0
1
0
0
0
0
0
0
0
0
0
0
0
0
0
0
0
1
0
0
0
0
0
0
0
0
1
0
0
0
0
0
0
0
0
0
0
0
0
0
0
0
0
0
0
0
0
0
0
0
0
0
0
0
0
0
0
1
0
0
0
0
0
0
0
0
0
0
0
0
0
0
0
0
1
0
0
0
0
0
0
0
0
1
0
0
0
0
0
0
0
0
0
1
0
0
0
0
0
1
0
0
0
0
0
0
0
0
0
0
0
0
0
0
0
0
0
0
0
1
0
0
0
0
0
0
1
0
0
0
0
0
0
0
0
1
0
0
0
0
0
0
0
0
0
0
0
0
0
0
1
0
0
1
0
0
0
1
0
0
0
0
0
0
0
0
0
0
0
0
0
0
0
0
1
0
0
0
0
0
0
0
0
0
0
1
0
1
0
0
0
0
0
0
1
0
0
0
0
0
0
0
0
0
0
0
0
0
0
0
0
0
0
0
0
0
0
0
0
0
0
0
1
1
0
0
0
0
0
0
1
0
0
0
0
0
0
0
0
0
0
0
0
0
1
0
0
0
0
0
0
0
1
0
0
0
0
0
0
0
0
0
0
0
0
0
0
0
0
0
0
0
0
0
0
0
0
0
0
0
1
0
0
0
0
0
0
0
0
0
0
1
0
0
1
0
0
0
0
0
0
0
0
0
0
0
0
0
0
0
0
0
0
0
0
0
0
0
0
0
0
0
0
0
1
0
0
0
0
0
0
0
1
0
0
0
0
0
0
0
1
0
0
0
0
1
0
0
0
0
0
0
0
0
0
0
0
1
0
1
0
0
0
1
0
				</DataArray>
				<DataArray type="Float64" Name="h" NumberOfComponents="1" Format="ascii">
0.8591552033
0.8591419776
0.8576716511
0.8560699820
0.8596024717
0.8596740616
0.8577879550
0.8545056718
0.8579817035
0.8498520286
0.8538751886
0.8583759502
0.8572590942
0.8531303697
0.8565147031
0.8532838628
0.8555607004
0.8528188394
0.8582423476
0.8525352216
0.8579742399
0.8586334882
0.8599291705
0.8613585966
0.8536201464
0.8532924350
0.8587316689
0.8603689050
0.8609432937
0.8497273543
0.8499497932
0.8607053894
0.8572737353
0.8593371953
0.8663255878
0.8619071222
0.8603655990
0.8596887389
0.8580243775
0.8600188769
0.8611029816
0.8633626118
0.8603430990
0.8608722603
0.8616561804
0.8612436258
0.8611642767
0.8674064972
0.8789529246
0.8735141331
0.8621679324
0.8622289623
0.8617553242
0.8666448801
0.8639848928
0.8594956842
0.8622802153
0.8705254329
0.8728654873
0.8686233474
0.8779036303
0.8762867667
0.8798553049
0.8627016935
0.8608505707
0.8594780832
0.8673958205
0.8746439628
0.8745756297
0.8726050640
0.8716046163
0.8650328946
0.8583566333
0.8696688107
0.8716661527
0.8508206319
0.8720494534
0.8754251253
0.8695671591
0.8544659980
0.8811698163
0.8606561457
0.8871445192
0.8684216330
0.8540580661
0.8523834782
0.8819934532
0.8613122387
0.8751876824
0.8846588371
0.8827461403
0.8528143385
0.8777499763
0.8802529981
0.8558884713
0.8549929271
0.8557147137
0.8548789972
0.8568870297
0.8822018663
0.8853560376
0.8809620073
0.8607833100
0.8682318443
0.8437978992
0.8615628256
0.8505208962
0.8825284063
0.8763503147
0.8585896408
0.8764311356
0.8816823986
0.8792993552
0.8817032054
0.8662530205
0.8877534673
0.8632783894
0.8472689559
0.8844096940
0.8719559779
0.8442875816
0.8583550384
0.8479649284
0.8342977021
0.8780991854
0.8833910358
0.8683324020
0.8338976593
0.8875365557
0.8871232122
0.8855034411
0.8535612883
0.8734550582
0.8890214543
0.8439430995
0.8854755473
0.8476190194
0.8886628810
0.8847829739
0.8550911701
0.8333813770
0.8385111555
0.8858173284
0.8574283778
0.8502986885
0.8849381597
0.8514369036
0.8878773009
0.8368483138
0.8870538693
0.8443088804
0.8893331080
0.8886046235
0.8878050857
0.8840222856
0.8883152209
0.8888955338
0.8399805828
0.8876140782
0.8204980499
0.8573384765
0.8890332501
0.8498069799
0.8301927254
0.8362285332
0.8871365727
0.8577720283
0.8545230395
0.8249733022
0.8869274229
0.8892844596
0.8175150740
0.8876055477
0.8377530177
0.8576596010
0.8851684460
0.8583724358
0.8871942546
0.8862876679
0.8291818641
0.8883578604
0.8553001837
0.8194643136
0.8461738482
0.8166657822
0.8074827524
0.8565488677
0.8861971974
0.8209736972
0.8032315685
0.8521327485
0.8870345000
0.8109203454
0.8539740858
0.8850504862
0.8876978415
0.8324621139
0.8486821357
0.8507346606
0.8840506736
0.8024518779
0.8461240140
0.8057917854
0.8861755075
0.8455045461
0.8203574505
0.8527017262
0.8422247462
0.8473274590
0.8568386945
0.8514922569
0.8107371882
0.8291596585
0.8179990241
0.8481817222
0.8481601200
0.8556075945
0.8280554621
0.8544051640
0.8156926575
0.8446392535
0.8793554589
0.8563499539
0.8663126604
0.8448305447
0.8863865002
0.8868047825
0.8535734185
0.8435980329
0.8840200796
0.8860852827
0.8732170076
0.8482879716
0.8846504722
0.8874467036
0.8594160504
0.8497930864
0.8530807919
0.8129494917
0.8558875049
0.8501386550
0.8435768727
0.8245481406
0.8570793052
0.8455755220
0.8550367259
0.8243528853
0.8530267546
0.8491102186
0.8313789100
0.8553339233
0.8529961002
0.8325228113
0.8466036866
0.8470923386
0.8225990131
0.8569365368
0.8511533504
0.8179782130
0.8706931633
0.8551938999
0.8432707036
0.8498689885
0.8625825116
0.8457979241
0.8873717072
0.8868213079
0.8432469417
0.8839596749
0.8766639147
0.8859359424
0.8556310781
0.8827942543
0.8562076604
0.8634325303
0.8431634085
0.8454687038
0.8555497565
0.8698579425
0.8433840673
0.8862586199
0.8848320510
0.8860304488
0.8877594781
0.8822172541
0.8774077422
0.8503708182
0.8529064248
0.8280271358
0.8279489468
0.8547161868
0.8487263709
0.8445857599
0.8467757113
0.8553844854
0.8501322458
0.8556515460
0.8495141233
0.8337393852
0.8225802928
0.8264259238
0.8515936860
0.8514985289
0.8483154285
0.8464497397
0.8551537538
0.8523782099
0.8560480936
0.8350291883
0.8442662641
0.8529840642
0.8484079599
0.8839527996
0.8442979119
0.8848078208
0.8670451743
0.8543065942
0.8805161058
0.8872762852
0.8539979187
0.8599189116
0.8441257139
0.8741233970
0.8874741228
0.8452258560
0.8474784642
0.8534686911
0.8862883956
0.8596149446
0.8742894482
0.8849608660
0.8879811062
0.8853935985
0.8455911399
0.8670641754
0.8430335862
0.8802767456
0.8540540977
0.8902373868
0.8549901674
0.8519254292
0.8546670822
0.8308504689
0.8495079148
0.8451447090
0.8530146248
0.8472817388
0.8304919654
0.8873137893
0.8623002864
0.8511384256
0.8691539988
0.8514203057
0.8368524326
0.8918061432
0.8546689105
0.8694125859
0.8531023537
0.8550566636
0.8782517155
0.8787724731
0.8897260831
0.8264093001
0.8513319722
0.8483900206
0.8494366765
0.8676155234
0.8692080331
0.8626765106
0.8293427230
0.8719717736
0.8867698783
0.8353500095
0.8878347320
0.8644016961
0.8591380924
0.8874926299
0.8338810856
0.8837881258
0.8480377039
0.8476975258
0.8782912217
0.8839937404
0.8543122772
0.8724704906
0.8532683482
0.8452069886
0.8515398822
0.8496342608
0.8574297353
0.8859477473
0.8503524290
0.8574376867
0.8765165177
0.8882671096
0.8656665409
0.8329827905
0.8452945686
0.8493221793
0.8695249279
0.8477096468
0.8834896757
0.8656958068
0.8716400426
0.8732515307
0.8865544145
0.8787660713
0.8454623329
0.8471909663
0.8617610182
0.8536062846
0.8646527376
0.8708200109
0.8705125902
0.8533968628
0.8893503494
0.8821731941
0.8544036690
0.8735498853
0.8548367990
0.8742587372
0.8706555586
0.8472231666
0.8835846775
0.8918267215
0.8602849842
0.8878977613
0.8329074219
0.8830042744
0.8521763254
0.8616558229
0.8952611199
0.8750034437
0.8900282689
0.8700257203
0.8652689940
0.8980758401
0.8768045066
0.8880062757
0.8799078259
0.8778306724
0.8870306523
0.8509641562
0.8909141056
0.8825848008
0.8544441959
0.8548022324
0.8844381497
0.8650217204
0.8886882383
0.8820988232
0.8851377199
0.8293278757
0.8571732223
0.8527516994
0.8706556452
0.8983120239
0.8942093951
0.8777797638
0.8997585273
0.8381395928
0.8524135210
0.8529117689
0.8843923076
0.8536790959
0.8635753053
0.8566936158
0.8489591028
0.8747255848
0.8469458764
0.8875829679
0.8549909959
0.8768309413
0.8557039639
0.8535735202
0.8527165120
0.9064891922
0.8626209466
0.8342368488
0.8348610807
0.8379192348
0.8581153295
0.8504236428
0.8871262129
0.9115588905
0.9064960441
0.8823552336
0.8412969876
0.8575122974
0.8447985603
0.8881749647
0.8503257096
0.9112509364
0.8385152906
0.8329784257
0.8533525641
0.8543019787
0.9137225749
0.8702830042
0.8374228528
0.9030077991
0.9024317607
0.8578845167
0.8493222968
0.8695237717
0.8553359651
0.8498534253
0.8313470492
0.8605906332
0.8930379761
0.8412975592
0.8564611247
0.8942030816
0.8549915996
0.8838907463
0.8342260058
0.8895485049
0.8787281773
0.8332810512
0.8562572080
0.8564869335
0.8775566651
0.8838958762
0.8901830790
0.8524589848
0.8953764320
0.8338098116
0.8856118667
0.8809288694
0.8598381376
0.8852366955
0.8529060501
0.8795458505
0.8456601947
0.8469426431
0.8776461744
0.8385075902
0.8542974821
0.8313337376
0.8809308808
0.8581193148
0.8730501602
0.8495724697
0.8313662002
0.8616919816
0.8546325867
0.8329188588
0.8556993876
0.8673558017
0.8445339295
0.8997049058
0.8551460784
0.8493658105
0.8838838136
0.8369660342
0.8858302371
0.8614349914
0.8401994954
0.8919087747
0.8957520920
0.8584585037
0.8369973263
0.8942233838
0.8504207090
0.8812555211
0.8768427389
0.8553350523
0.8567059364
0.8960926145
0.8851880378
0.8574244624
0.8897240653
0.8995772251
0.8917186440
0.8548472825
0.8337691330
0.8603778364
0.8869797044
0.8942000411
0.8624392856
0.8554995738
0.8650613856
0.9030052695
0.8342849542
0.8903724058
0.8457936246
0.8880373700
0.8708672917
0.8548130236
0.8395817009
0.8879425394
0.8783511367
0.8532981334
0.8829979562
0.8441821404
0.8571825591
0.8648295229
0.8322220943
0.9112567246
0.8668212541
0.8779616311
0.8602514106
0.9072148960
0.8527362841
0.8603047434
0.8507255265
0.8713766599
0.9097474041
0.8822038060
0.8339310180
0.8650969108
0.8413080029
0.9075761533
0.8363022234
0.8869799892
0.8494852223
0.8983494949
0.8456562259
0.8574205563
0.8598137356
0.8524550100
0.8976580659
0.8874652459
0.8370687636
0.8332710556
0.8579816628
0.8345448267
0.9212205315
0.8369586920
0.8459489139
0.8713783869
0.8369914214
0.8518720718
0.8614502490
0.8562575784
0.8584440281
0.8493619878
0.9143511518
0.9230021608
0.9072633725
0.8941590882
0.8313537541
0.8656378241
0.8767587728
0.8646730717
0.9096780709
0.9047918962
0.8838849746
0.8580539841
0.9111341866
0.8346617723
0.8558474637
0.8350175663
0.8459296053
0.8337846535
0.8617931389
0.8676884262
0.8546314907
0.9099068239
0.8528142878
0.8330202095
0.8419983812
0.9027973558
0.9183488791
0.9238624025
0.9050566765
0.8338730983
0.8587392717
0.8383912478
0.8495460019
0.9197459464
0.9231400626
0.8776479634
0.8591873034
0.8755129982
0.8408946569
0.9166167057
0.8398591220
0.8444761077
0.9338793135
0.9303619398
0.8647431723
0.8609420173
0.9215278005
0.8554075803
0.8516974179
0.8366894798
0.9267736547
0.9312821136
0.9302901904
0.8492210028
0.8438950545
0.8347223495
0.8363408597
0.8397368064
0.9258753267
0.9311601237
0.9115335937
0.9193074150
0.8340660082
0.9353022752
0.9372433608
0.8345050513
0.9230011541
0.9175039418
0.8339304395
0.9390930698
0.8551469331
0.9288188902
0.8397804024
0.8439253489
0.9390754887
0.8363014734
0.9350603436
0.9290360784
0.8369956124
0.9237898831
0.8343697932
0.8337599131
0.9201243710
0.9182358904
0.8325352824
0.8588529426
0.8590350403
0.8590316690
0.8588366932
0.8569474574
0.8583758984
0.8538802124
0.8569928334
0.8602579379
0.8596646871
0.8596150121
0.8602585474
0.8579724006
0.8565273430
0.8577778339
0.8528687865
0.8569838513
0.8569495345
0.8560698680
0.8528288453
0.8560726357
0.8576761898
0.8582563331
0.8497353246
0.8542507841
0.8559675238
0.8544958570
0.8532943845
0.8536171668
0.8498437395
0.8566498400
0.8572494092
0.8607964165
0.8566564660
0.8600522018
0.8528572924
0.8499531975
0.8560610224
0.8593328336
0.8572801374
0.8607153237
0.8590573813
0.8600185213
0.8583312186
0.8555660588
0.8532882228
0.8603524239
0.8580218055
0.8559688199
0.8542441656
0.8611070841
0.8531242401
0.8525400755
0.8607934657
0.8599163583
0.8678509404
0.8586224656
0.8632655901
0.8566421644
0.8579726390
0.8600433629
0.8590128065
0.8610085624
0.8673944837
0.8566482875
0.8616408558
0.8621617234
0.8611717133
0.8603640033
0.8613683274
0.8609228809
0.8622785204
0.8586608663
0.8587282582
0.8621695659
0.8513673220
0.8583363432
0.8644554312
0.8641971601
0.8590507251
0.8617620939
0.8678615033
0.8774578663
0.8761363558
0.8590044712
0.8632698777
0.8639465178
0.8610047158
0.8619099028
0.8608584885
0.8596796231
0.8661114177
0.8663381115
0.8798487547
0.8746220329
0.8626785730
0.8603720577
0.8627047903
0.8644568665
0.8698565641
0.8696005422
0.8608562606
0.8696492468
0.8678233730
0.8650291896
0.8583529917
0.8740799400
0.8567552098
0.8586891833
0.8621778674
0.8769390932
0.8642107081
0.8633674619
0.8720362689
0.8715930037
0.8705892263
0.8716500053
0.8586639723
0.8601948776
0.8745650273
0.8651985171
0.8513615899
0.8725924872
0.8639558442
0.8661205243
0.8569570807
0.8626804556
0.8707350765
0.8672331135
0.8714165487
0.8789562782
0.8622220077
0.8761555243
0.8612362983
0.8606538747
0.8684012532
0.8641817626
0.8774735493
0.8735341355
0.8779099295
0.8762960667
0.8601898819
0.8786450345
0.8706009635
0.8728795123
0.8693671626
0.8678348583
0.8521730556
0.8582413816
0.8698694905
0.8652130758
0.8661329848
0.8639855661
0.8755900620
0.8740898339
0.8769492410
0.8594937049
0.8627885859
0.8715293718
0.8567649199
0.8666535781
0.8696128973
0.8686345159
0.8527993258
0.8705383103
0.8586849506
0.8777454901
0.8707458637
0.8682171171
0.8568819217
0.8641876634
0.8549208774
0.8672409647
0.8809607684
0.8653730117
0.8802583550
0.8649674768
0.8594815872
0.8853711685
0.8674183408
0.8676711250
0.8548668255
0.8802283029
0.8549845628
0.8655452516
0.8714512895
0.8822018320
0.8615321589
0.8569664632
0.8872515725
0.8627942569
0.8763363024
0.8816787869
0.8786510708
0.8715429689
0.8792864108
0.8661409491
0.8508428042
0.8743481014
0.8693794535
0.8754352401
0.8582496287
0.8819191996
0.8521882190
0.8764042953
0.8585893570
0.8756000866
0.8802664549
0.8872283547
0.8649943419
0.8802315893
0.8524062973
0.8583489535
0.8744336867
0.8676854065
0.8487164152
0.8655538076
0.8649702895
0.8540737353
0.8544854901
0.8819903936
0.8871187432
0.8811665739
0.8632826667
0.8695794957
0.8654129485
0.8442957412
0.8613344748
0.8549338565
0.8819223485
0.8535456354
0.8701820407
0.8463654386
0.8834014751
0.8783823021
0.8814853272
0.8751976099
0.8559033931
0.8802694181
0.8864828685
0.8846483127
0.8827496239
0.8841706039
0.8717795429
0.8780834339
0.8683114399
0.8743968720
0.8871336875
0.8607870822
0.8861785903
0.8677519656
0.8649957886
0.8487122284
0.8744445184
0.8806791779
0.8439527110
0.8854847045
0.8734444308
0.8437938594
0.8557454864
0.8502769637
0.8637379736
0.8385211808
0.8772061140
0.8463709329
0.8864696182
0.8817049875
0.8825213523
0.8486743320
0.8717914208
0.8814883499
0.8662654826
0.8368586860
0.8702263808
0.8858273646
0.8301839907
0.8877377721
0.8783947226
0.8849453129
0.8841625856
0.8505511467
0.8409496157
0.8488697457
0.8609003154
0.8893302820
0.8861685322
0.8806834797
0.8406037181
0.8881532675
0.8859037899
0.8847996090
0.8719707526
0.8678239023
0.8893555009
0.8472584015
0.8852522481
0.8844005413
0.8480606418
0.8442951734
0.8886301065
0.8840299008
0.8486941838
0.8301696555
0.8545325919
0.8362354362
0.8772280487
0.8874530707
0.8409384323
0.8301377843
0.8874544444
0.8581777980
0.8637905739
0.8342831646
0.8875191235
0.8573429282
0.8395175931
0.8479923440
0.8854981872
0.8448325713
0.8498113494
0.8870256482
0.8890580476
0.8338845850
0.8876358524
0.8847871639
0.8476448533
0.8889974599
0.8885683881
0.8554226326
0.8858866118
0.8884078593
0.8886360911
0.8876254008
0.8486865079
0.8425832156
0.8847717430
0.8480495064
0.8609781211
0.8406071616
0.8893073527
0.8488912933
0.8852418182
0.8869516700
0.8875222277
0.8881285785
0.8893044328
0.8377557760
0.8870373056
0.8194840523
0.8536803705
0.8395104529
0.8301244599
0.8875088447
0.8885939434
0.8874074428
0.8574234893
0.8878564443
0.8514036185
0.8291936565
0.8874390056
0.8448247869
0.8582258254
0.8245524578
0.8333718450
0.8883772978
0.8870063236
0.8583758209
0.8870830638
0.8550834266
0.8874282196
0.8253793598
0.8209929346
0.8882893816
0.8888755247
0.8425867250
0.8497189437
0.8885437248
0.8434115236
0.8486820490
0.8554761432
0.8166890304
0.8883823362
0.8877855185
0.8399744553
0.8875027005
0.8565404493
0.8486193348
0.8850659231
0.8577700829
0.8253624898
0.8874900113
0.8877176022
0.8245358178
0.8873850289
0.8870660333
0.8875999684
0.8153555041
0.8885691242
0.8537221726
0.8274990570
0.8870470727
0.8887398591
0.8301790526
0.8871158358
0.8539623044
0.8871853504
0.8204779444
0.8460874524
0.8850840750
0.8174931471
0.8058171506
0.8576642815
0.8861940367
0.8497625771
0.8249537707
0.8024786147
0.8434014477
0.8507179434
0.8844414789
0.8862716532
0.8340039951
0.8153337982
0.8274826893
0.8107609246
0.8871725051
0.8875795423
0.8238986731
0.8878360638
0.8553145441
0.8887180011
0.8851565073
0.8486561000
0.8079724332
0.8057253925
0.8871814570
0.8291709133
0.8473072583
0.8521467909
0.8860940893
0.8850629172
0.8032052839
0.8844159774
0.8857492249
0.8847501003
0.8462035816
0.8074573060
0.8861767641
0.8446192217
0.8243702397
0.8550383352
0.8371935849
0.8455638655
0.8486986185
0.8056997309
0.8451595167
0.8151921817
0.8570827681
0.8351778334
0.8339968323
0.8497813884
0.8108966137
0.8102144777
0.8878152758
0.8324560506
0.8150932248
0.8511542228
0.8392387882
0.8465895844
0.8569388100
0.8325303850
0.8530161171
0.8079477639
0.8129722564
0.8238823384
0.8859209264
0.8441807623
0.8455218690
0.8857385090
0.8773590262
0.8556259620
0.8847220027
0.8633299666
0.8433568592
0.8860324757
0.8862700238
0.8878031766
0.8503017849
0.8432276999
0.8827837930
0.8840305512
0.8706062634
0.8457557744
0.8839739511
0.8876851334
0.8873794530
0.8561437307
0.8515036588
0.8547187146
0.8372959269
0.8156708349
0.8556572350
0.8487164320
0.8351760957
0.8451770666
0.8371937969
0.8199348891
0.8450582973
0.8467732792
0.8280425833
0.8151701870
0.8568333525
0.8422308567
0.8527033266
0.8203377053
0.8544132736
0.8515944566
0.8350369749
0.8101906998
0.8560502402
0.8514915860
0.8280426217
0.8481757615
0.8464350612
0.8409965986
0.8198239940
0.8556048005
0.8392409035
0.8481976699
0.8150715191
0.8732751158
0.8539967429
0.8451642747
0.8430174640
0.8474287947
0.8595293325
0.8483421222
0.8876702201
0.8874369593
0.8862812042
0.8436236085
0.8846328152
0.8876826267
0.8742108537
0.8849533673
0.8563472103
0.8859149936
0.8840214214
0.8594763325
0.8663896552
0.8442798533
0.8440970475
0.8528767808
0.8669373214
0.8448716700
0.8867893308
0.8877870230
0.8839562233
0.8442011271
0.8863798866
0.8874707566
0.8804796153
0.8872329539
0.8793841913
0.8536276349
0.8540559833
0.8389007249
0.8245306475
0.8199152387
0.8308644048
0.8530785538
0.8501498720
0.8474416114
0.8472842092
0.8450784147
0.8435814069
0.8546742069
0.8494992049
0.8558799633
0.8372943996
0.8514232305
0.8368614755
0.8198044023
0.8239945978
0.8491118948
0.8530011046
0.8483763686
0.8419006667
0.8471066492
0.8409959742
0.8550610181
0.8513269578
0.8553306586
0.8313680748
0.8454478685
0.8556712213
0.8471636138
0.8848257052
0.8431811359
0.8834642155
0.8699467525
0.8532676518
0.8822399234
0.8872327314
0.8873493800
0.8865304574
0.8485033054
0.8551889022
0.8573558180
0.8455167514
0.8715543755
0.8877568478
0.8451881472
0.8499424870
0.8514875893
0.8868226123
0.8451864649
0.8865853332
0.8626700853
0.8767210517
0.8859369282
0.8874730431
0.8839790990
0.8476858873
0.8643058625
0.8432999900
0.8782367604
0.8876773129
0.8893202644
0.8616519530
0.8515852049
0.8735279913
0.8529037158
0.8388972153
0.8892433913
0.8900186875
0.8544079979
0.8677025069
0.8521722616
0.8553746373
0.8740789008
0.8835611047
0.8920493713
0.8279338068
0.8501415578
0.8474613510
0.8472265465
0.8533987717
0.8445863521
0.8646509031
0.8716799193
0.8652632913
0.8329198938
0.8681503437
0.8828774370
0.8402731363
0.8878368484
0.8596712231
0.8524071057
0.8691311210
0.8495129798
0.8337291770
0.8869402579
0.8918677918
0.8544519040
0.8671562788
0.8527493654
0.8551497183
0.8787281227
0.8796501025
0.8901460962
0.8239770964
0.8523828316
0.8483289944
0.8426121915
0.8509654860
0.8418967747
0.8642915276
0.8721416212
0.8612842346
0.8273406485
0.8706423562
0.8868778252
0.8381484956
0.8601288799
0.8870869091
0.8540416639
0.8671629677
0.8778872245
0.8869798956
0.8574690840
0.8879935942
0.8348659900
0.8338007734
0.8491513663
0.8823212926
0.8447997071
0.8694934737
0.8503110011
0.8866008955
0.8456035844
0.8667901251
0.8803196258
0.8732548224
0.8853995790
0.8536778590
0.8702160377
0.8543020421
0.8452562780
0.8535480439
0.8593766627
0.8498362219
0.8578865342
0.8843554359
0.8535621945
0.8600074069
0.8779599004
0.8875524577
0.8635129955
0.8873604544
0.8331007696
0.8325740089
0.8446391531
0.8860444772
0.8488763565
0.8709879479
0.8489421708
0.8848262624
0.8485192196
0.8668216990
0.8742003656
0.8747246660
0.8872903276
0.8767778332
0.8442842416
0.8484553552
0.8626223521
0.8526917500
0.8613670063
0.8939644379
0.8724147910
0.8869697720
0.8787289248
0.8677020768
0.8775592580
0.8834241992
0.8530134001
0.8897280437
0.8879400530
0.8834387174
0.8896977373
0.8832506848
0.8549805876
0.8744100100
0.8527164634
0.8716800598
0.8596471358
0.8676710337
0.8821949671
0.8451421825
0.8843639171
0.8920824267
0.8607141604
0.8919035407
0.8743686342
0.8852335925
0.8888195878
0.8304789183
0.8568429597
0.8828942646
0.8519305326
0.8676163154
0.8742586682
0.8996849295
0.8957332715
0.8596519221
0.8795474508
0.8955727183
0.8741038034
0.8900409628
0.8986011914
0.8402682886
0.8515957679
0.8681523247
0.8646343271
0.8917939264
0.8623039517
0.8966212423
0.8783704570
0.8830221356
0.8887024086
0.8782101772
0.8692072840
0.8752750841
0.8853436439
0.8494356489
0.8892816514
0.8924346055
0.8861127193
0.8838101804
0.8546632256
0.8787850754
0.8535046958
0.8743429339
0.8743426102
0.8823708235
0.8426069049
0.8873394506
0.8918352461
0.8663027926
0.8877469641
0.8806816019
0.8866493581
0.8273250268
0.8540098920
0.8700255866
0.8782171226
0.8531052051
0.8676717495
0.8976348487
0.8936564069
0.8626817188
0.8757679770
0.8933738726
0.8706460891
0.8868977318
0.9008374406
0.8353403387
0.8511463318
0.8671555741
0.8691741018
0.8526692472
0.8859690619
0.9075771385
0.9072064782
0.8860698085
0.8543108433
0.8379165539
0.8657471276
0.8488757240
0.8897260890
0.8562631945
0.8477284947
0.8732516031
0.9112471136
0.8412687351
0.8337962951
0.8451861943
0.8882950083
0.8541346542
0.8552306453
0.9111299364
0.8788175745
0.8405709217
0.8983721231
0.9048585655
0.8601238056
0.8452950375
0.8700484842
0.8700473938
0.8551842345
0.8503635563
0.8536484328
0.9051563054
0.8617570901
0.8741172625
0.8322413159
0.8338748018
0.8603720583
0.8908719578
0.8365910148
0.8406834389
0.8557642732
0.8346092581
0.8965408716
0.8496898120
0.8878658889
0.9097459691
0.9046157694
0.8838177333
0.8411194870
0.8592039142
0.8446387677
0.8875300951
0.8480514727
0.8741179609
0.9096667387
0.8364217940
0.8325686697
0.8426495911
0.8870041539
0.8532996770
0.8544653342
0.9116751986
0.8725449149
0.8365881254
0.9015811678
0.9007743362
0.8574264532
0.8491530885
0.8709881437
0.8565807073
0.8553589617
0.8540532851
0.8496591488
0.9044588043
0.8593761424
0.8297828020
0.8330945697
0.8452065194
0.8573825099
0.8930172180
0.8368533153
0.8405721240
0.8551644616
0.8923968435
0.8784248356
0.8412636548
0.8552272637
0.8832513440
0.8322298859
0.8879383045
0.8799086677
0.8573892546
0.8699769027
0.8765216462
0.8445800243
0.8348727531
0.8562945088
0.8951525930
0.8564767201
0.8749059502
0.8337225171
0.8551708126
0.8699132885
0.8749033304
0.8612915350
0.8821927955
0.8487826340
0.8843381687
0.8869897499
0.8838893779
0.8642945205
0.8951742227
0.8593028158
0.8526772135
0.8939672415
0.8796762816
0.8837847459
0.8344242686
0.8613635816
0.8414234559
0.8834211573
0.8719738928
0.8799024212
0.8848258882
0.8900082248
0.8640450322
0.8365966721
0.8902826125
0.8999906594
0.8721410774
0.8840705456
0.9005753979
0.8619852623
0.8401366758
0.8840861988
0.8910845605
0.8526656766
0.8799365012
0.8777933114
0.8464694721
0.8451832249
0.8867852641
0.8771570835
0.8364132815
0.8544573628
0.8838194981
0.8297687333
0.8853411676
0.8799037684
0.8856150168
0.8557756827
0.8723593720
0.8778288398
0.8489182086
0.8325180424
0.8609394403
0.8548418306
0.8326557962
0.8551831235
0.8668031900
0.8705137009
0.8777777827
0.8825838896
0.8439257384
0.8897597261
0.8953757084
0.8955961736
0.8546020105
0.8499452146
0.8909143418
0.8831075534
0.8331177078
0.8386720404
0.8823676377
0.9005582274
0.8838177868
0.8847426896
0.8644782388
0.8397812151
0.8966282422
0.8997750124
0.8597570219
0.8363168796
0.8886883598
0.8986129339
0.8496885678
0.8806223809
0.8820979838
0.8428034337
0.8426441368
0.8784148598
0.8553588065