<VTKFile type="UnstructuredGrid" version="0.1">
	<UnstructuredGrid>
		<Piece NumberOfPoints="1862" NumberOfCells="3498">
			<CellData>
				<DataArray type="Int32" Name="type" NumberOfComponents="1" Format="ascii">
0
0
0
0
0
0
0
0
0
0
0
0
0
0
0
0
1
0
0
1
0
0
0
0
0
0
0
0
0
0
0
0
0
1
0
0
0
0
0
0
0
0
0
0
0
0
0
0
0
0
1
0
0
0
0
0
0
0
0
0
0
1
0
0
0
0
0
0
0
0
0
0
0
0
0
0
0
0
0
0
0
0
0
0
0
0
0
0
0
0
0
0
0
0
0
0
0
0
0
0
0
0
0
0
0
0
0
0
0
0
0
0
0
0
0
0
0
0
0
0
0
0
0
1
0
0
0
0
0
0
0
0
0
0
0
0
0
0
0
0
0
0
0
0
0
0
0
0
0
0
0
1
0
1
1
0
0
0
0
0
0
0
0
0
0
0
0
0
1
0
1
0
0
0
0
1
0
0
0
0
0
0
0
0
1
1
0
0
0
0
0
1
0
0
0
0
0
0
0
0
1
0
0
0
0
0
0
0
0
0
0
0
0
0
0
0
0
0
0
0
0
0
0
0
0
0
0
0
0
0
0
0
0
1
0
0
0
0
0
0
0
0
0
0
0
0
0
0
0
0
0
0
0
0
0
0
0
0
0
0
0
0
0
0
0
0
0
0
0
0
0
0
0
0
0
0
0
0
0
0
0
1
0
0
0
0
0
0
0
0
0
0
0
0
0
0
0
0
0
0
0
0
0
0
0
0
0
0
0
0
0
0
0
0
0
0
0
0
0
0
0
0
0
0
0
0
0
0
0
0
0
0
1
0
0
0
0
0
0
0
0
0
0
0
0
0
0
0
0
0
0
0
0
0
0
0
0
0
0
0
0
0
0
0
0
0
0
0
0
0
0
0
0
0
0
0
0
0
0
0
0
0
0
0
0
0
0
0
0
0
1
0
0
0
0
0
0
0
0
0
0
0
0
0
0
0
0
0
0
0
0
0
0
0
0
0
0
0
0
0
0
0
0
0
0
0
0
0
0
0
0
0
0
0
0
0
0
0
0
0
0
0
0
0
0
0
0
0
0
0
0
0
0
0
0
0
0
0
0
0
0
0
0
0
0
0
0
0
0
0
0
0
0
0
0
0
0
0
0
0
0
0
0
0
0
0
0
0
0
0
0
0
0
0
0
0
0
0
0
0
0
0
0
0
0
0
0
0
0
0
0
0
0
0
0
0
0
0
0
0
0
0
0
1
0
0
0
0
0
0
0
0
0
0
0
0
0
0
0
0
0
0
0
1
0
0
0
0
0
0
0
0
0
0
0
0
0
0
0
0
0
0
0
0
0
0
0
0
0
0
0
0
0
0
0
0
0
0
0
0
0
0
0
0
0
0
0
0
0
0
0
0
0
0
0
0
0
1
0
0
0
0
0
0
0
0
0
0
0
0
0
0
0
0
0
0
0
0
0
0
0
1
0
0
0
0
0
0
0
0
0
0
0
0
0
0
0
0
0
0
0
1
0
0
0
1
0
0
0
0
0
0
0
0
0
0
0
0
0
0
0
0
0
0
0
0
0
0
0
0
0
1
0
0
0
0
0
0
0
1
0
0
0
0
0
0
0
0
0
0
0
0
0
0
0
0
0
0
0
0
0
0
0
0
0
0
1
0
0
0
0
0
0
0
1
0
0
0
0
0
0
1
0
0
0
0
0
0
0
0
0
0
0
0
0
0
0
0
0
0
0
0
0
0
0
0
0
0
0
0
0
0
0
0
0
0
0
0
0
0
1
0
0
0
0
0
1
0
0
0
0
0
0
0
1
0
0
0
0
0
0
0
0
0
0
0
0
0
1
0
0
0
0
0
0
0
0
0
0
0
0
0
0
0
0
0
0
0
0
0
0
0
0
0
0
0
0
0
0
0
0
0
0
0
0
0
0
0
0
0
0
0
0
0
0
0
0
0
0
0
0
0
1
0
0
0
0
0
0
0
0
0
0
0
0
0
0
0
0
0
0
0
1
0
0
0
0
0
0
0
0
0
1
0
0
0
0
0
0
0
0
0
0
0
0
0
0
0
0
0
0
0
0
0
0
0
0
0
0
0
0
0
1
0
1
0
0
0
0
0
0
0
0
0
0
0
0
0
0
0
0
0
0
0
0
0
0
0
0
0
0
0
1
0
0
0
1
0
0
0
0
0
0
0
0
0
0
0
0
0
0
0
0
0
0
0
0
0
0
0
0
0
0
0
0
1
0
0
0
0
0
0
0
0
0
0
0
0
0
0
0
0
0
0
0
0
0
0
0
0
0
1
0
0
0
0
0
0
0
0
0
0
0
0
0
0
0
0
0
0
0
0
0
0
0
1
0
0
0
0
0
0
1
0
0
0
0
0
0
0
0
0
0
0
1
0
0
0
0
0
0
0
0
0
0
0
0
0
0
0
0
0
0
0
0
1
0
0
0
0
0
0
0
0
0
0
0
1
0
0
0
0
0
0
0
0
0
0
0
0
0
0
0
0
0
0
0
0
0
1
0
0
0
0
0
0
0
0
0
1
1
0
1
0
1
0
0
0
0
0
0
0
0
0
0
0
1
0
0
0
0
0
1
1
0
0
0
0
0
0
1
0
0
0
0
0
1
1
1
0
0
0
0
0
0
0
0
0
0
0
0
1
1
0
0
1
0
0
0
0
0
1
0
0
0
1
0
1
0
0
0
0
0
0
0
1
0
0
0
0
0
0
0
1
0
0
1
0
0
0
0
0
0
0
0
0
0
0
0
0
0
0
1
0
0
0
0
0
0
0
0
0
0
0
0
0
0
0
0
0
0
0
0
0
0
0
0
0
0
0
0
0
0
0
0
0
0
0
0
1
0
0
0
0
0
0
1
0
0
0
1
0
0
0
0
0
0
0
0
0
0
0
1
0
0
0
0
0
0
0
0
0
0
0
0
0
0
0
0
0
0
0
0
0
0
0
0
0
0
0
0
0
0
0
0
0
0
0
0
0
0
0
0
1
1
0
0
0
0
0
0
0
0
0
0
0
0
0
1
0
0
0
0
0
0
0
0
0
0
0
0
0
0
0
0
0
0
0
0
0
0
0
0
0
0
0
0
0
0
0
0
0
0
0
0
0
0
0
0
0
0
0
0
0
0
0
0
0
0
0
0
0
0
0
0
0
0
0
0
0
0
0
0
0
0
0
0
0
0
0
0
1
1
0
0
0
0
0
0
0
0
1
0
0
0
0
0
0
0
0
0
0
0
0
0
0
0
0
0
0
0
0
0
0
0
1
0
0
0
0
0
0
0
0
0
0
0
0
0
0
0
0
1
0
0
0
0
0
0
0
0
0
0
0
0
0
0
0
0
0
0
0
0
0
0
0
0
0
0
0
0
0
0
0
0
0
0
0
0
0
0
0
0
0
0
0
0
0
0
0
0
0
0
0
0
0
0
0
0
0
0
0
0
0
0
0
0
0
0
0
0
0
0
0
0
0
0
0
0
0
0
0
0
0
0
0
0
0
0
0
0
0
0
1
1
0
0
0
0
0
1
0
0
0
0
0
0
0
0
0
0
0
0
1
0
0
0
0
0
0
0
0
0
0
0
0
0
0
0
0
0
0
0
0
0
0
0
0
0
0
0
0
0
0
0
0
0
0
0
0
0
0
0
0
0
0
0
0
0
0
0
0
0
0
0
0
0
1
0
1
0
0
0
0
0
0
0
0
0
0
0
0
0
0
0
0
0
0
1
0
0
0
0
0
0
0
0
0
0
0
0
0
0
0
0
0
0
0
0
0
0
0
0
0
0
0
0
0
0
0
0
0
0
0
0
0
0
0
0
0
0
0
0
0
0
0
0
0
0
0
0
0
0
0
0
0
0
0
0
0
0
0
0
0
0
0
0
0
0
1
0
0
0
0
0
0
0
0
0
0
1
0
0
0
0
0
0
0
0
0
0
0
0
0
0
0
0
0
0
0
0
0
0
0
0
0
0
0
0
0
0
0
0
0
0
0
0
0
1
0
0
0
0
0
0
0
0
0
0
0
0
0
0
0
0
0
0
0
0
0
0
0
0
0
0
0
0
0
0
0
0
0
0
0
0
0
0
0
0
0
0
0
0
0
0
0
0
0
0
0
0
0
0
0
0
0
0
0
0
0
0
0
0
0
0
0
0
0
0
0
0
0
0
0
0
0
0
0
0
0
1
0
0
0
0
0
0
0
0
0
0
0
0
0
0
0
0
0
0
0
0
0
0
0
0
0
0
0
0
0
0
0
0
0
0
0
0
0
0
0
0
0
0
0
0
0
0
0
0
0
0
0
0
0
0
0
0
0
0
0
0
0
0
0
0
0
0
0
0
0
0
0
0
0
0
0
0
0
0
0
0
0
0
0
0
0
0
0
0
0
0
0
0
0
0
0
0
0
0
0
0
0
0
0
0
0
0
0
0
0
0
0
0
0
0
0
0
0
0
0
0
0
0
0
1
0
0
0
0
0
0
0
0
0
0
0
0
0
0
0
0
0
0
0
0
0
0
0
0
0
0
0
0
0
0
0
0
0
0
0
0
0
0
0
0
0
0
0
0
0
0
0
0
0
0
0
0
0
0
0
0
0
0
0
0
0
0
0
0
0
0
0
0
0
0
0
0
0
0
0
0
0
0
0
0
0
1
0
0
0
0
0
0
0
1
0
0
0
0
0
0
0
0
0
0
0
0
0
0
0
0
0
0
0
0
0
0
0
0
0
0
0
0
0
0
0
0
0
0
0
0
0
1
0
0
0
0
0
0
0
0
0
0
0
0
0
0
0
0
0
0
0
0
0
1
0
0
0
0
0
0
0
0
0
0
0
0
1
1
0
0
0
0
0
0
0
0
0
0
0
0
0
0
0
1
1
0
1
0
0
0
0
0
0
0
0
0
1
0
0
0
0
0
0
1
0
0
0
0
0
0
0
0
0
0
1
0
0
0
0
1
0
1
0
0
0
0
0
0
0
1
0
0
0
1
0
0
0
1
0
1
1
0
0
1
1
0
0
0
1
0
0
0
1
0
0
0
0
0
0
0
0
0
1
0
0
0
0
0
0
1
0
0
0
0
0
0
0
0
0
0
0
0
0
0
0
0
0
0
0
0
0
0
0
0
0
0
0
1
0
0
1
0
0
0
0
0
0
0
0
0
0
0
0
0
0
0
0
0
0
1
0
0
1
0
0
0
0
0
0
0
0
0
0
0
1
0
0
1
0
0
0
0
0
0
0
0
0
0
0
1
1
0
0
0
0
0
0
0
0
0
0
0
0
1
0
0
0
0
0
0
0
0
0
0
0
0
0
0
0
0
0
1
0
0
0
0
0
0
0
0
0
0
0
0
0
0
0
0
0
1
0
0
0
0
0
0
0
0
0
0
0
0
0
0
0
0
0
0
0
0
0
0
0
0
0
0
0
0
0
0
0
0
0
0
0
0
0
0
0
0
1
0
0
0
0
0
0
0
0
0
0
0
0
0
0
0
0
0
0
0
0
0
0
0
0
0
0
0
0
0
0
0
0
0
0
0
0
0
0
0
0
0
0
0
0
0
1
0
0
0
0
0
0
0
0
0
0
0
0
0
0
0
0
0
0
0
0
0
0
0
0
0
0
0
0
0
0
0
0
0
0
0
0
0
0
0
0
0
0
0
0
0
0
0
1
0
0
0
0
0
0
0
0
0
0
1
0
0
0
0
0
0
0
0
0
0
0
0
0
0
0
1
0
0
1
0
0
0
0
0
0
0
0
0
0
0
0
0
0
0
0
0
0
0
0
0
0
0
1
0
0
0
0
0
0
0
0
0
0
0
0
0
0
0
0
0
0
0
0
0
0
0
0
0
0
0
0
0
0
0
0
0
0
0
1
0
0
0
0
0
0
0
0
0
0
0
0
0
0
0
0
0
0
0
0
0
0
0
0
0
0
0
0
0
0
0
0
0
0
0
0
0
0
0
0
0
0
0
0
0
0
0
0
0
0
0
0
0
0
0
0
0
0
0
0
0
0
0
0
0
0
0
0
0
0
0
0
0
0
0
0
1
0
0
0
0
0
0
0
0
0
0
0
0
0
0
0
0
0
0
0
0
0
0
0
0
0
0
0
0
0
0
0
0
0
0
0
0
0
0
0
1
0
0
0
0
0
0
0
0
0
0
0
0
1
1
0
0
0
0
0
0
0
0
0
0
0
0
0
0
0
0
0
0
0
0
0
0
0
0
0
0
0
0
0
0
0
0
0
0
0
0
0
0
0
0
0
0
0
0
0
0
0
0
0
0
0
0
0
0
0
0
0
0
0
0
0
0
0
0
0
0
0
0
0
0
0
0
0
0
0
0
0
0
0
0
0
0
0
0
0
0
0
0
0
0
0
0
0
0
0
0
0
0
0
0
0
1
0
1
0
0
0
0
0
0
0
1
1
1
1
0
0
0
0
0
0
0
0
0
0
0
0
0
0
0
0
0
0
0
0
0
0
0
0
0
0
0
0
1
1
0
0
0
0
0
0
0
0
0
0
0
0
0
0
0
0
0
0
1
0
0
0
0
0
0
0
1
1
0
1
1
0
0
1
0
0
0
0
0
0
0
1
0
1
0
0
0
0
0
0
0
0
0
0
0
0
0
0
0
0
0
0
0
0
0
0
0
0
0
0
0
1
1
0
0
0
1
1
0
0
0
0
1
0
0
1
0
1
0
0
0
0
0
1
0
0
0
1
0
0
0
0
0
0
0
0
0
0
0
0
0
0
0
0
0
0
0
0
0
0
0
0
0
0
0
1
0
0
0
0
0
0
1
0
0
0
0
0
0
0
0
0
0
0
0
0
0
0
0
0
0
0
0
0
0
0
0
0
0
0
0
0
1
0
1
0
0
0
0
0
0
0
1
0
0
0
0
0
0
0
0
0
0
0
1
0
0
0
0
0
0
0
0
0
1
0
0
0
0
0
0
0
1
0
0
0
0
0
0
0
1
0
0
0
0
0
0
0
0
0
0
0
0
0
0
0
0
0
0
0
1
0
1
0
0
0
0
0
1
0
0
0
0
0
0
0
0
0
0
0
0
0
0
0
0
0
0
0
0
0
0
0
0
0
1
0
1
0
0
0
0
0
0
0
0
0
1
0
0
0
0
0
1
0
0
0
0
0
0
0
0
0
0
0
0
0
0
0
1
0
0
0
0
0
0
0
0
1
0
0
0
0
0
0
0
0
0
0
0
0
0
0
0
0
0
0
0
0
0
0
0
0
0
0
0
0
0
0
1
0
0
0
0
0
0
0
0
0
0
0
0
0
0
0
0
1
0
0
0
0
0
0
0
0
1
0
0
0
0
0
0
0
0
0
1
0
0
0
0
0
1
0
0
0
0
0
0
0
0
0
0
0
0
0
0
0
0
0
0
0
1
0
0
0
0
0
0
1
0
0
0
0
0
0
0
0
1
0
0
0
0
0
0
0
0
0
0
0
0
0
0
1
0
0
1
0
0
0
1
0
0
0
0
0
0
0
0
0
0
0
0
0
0
0
0
1
0
0
0
0
0
0
0
0
0
0
1
0
1
0
0
0
0
0
0
1
0
0
0
0
0
0
0
0
0
0
0
0
0
0
0
0
0
0
0
0
0
0
0
0
0
0
0
1
1
0
0
0
0
0
0
1
0
0
0
0
0
0
0
0
0
0
0
0
0
1
0
0
0
0
0
0
0
1
0
0
0
0
0
0
0
0
0
0
0
0
0
0
0
0
0
0
0
0
0
0
0
0
0
0
0
1
0
0
0
0
0
0
0
0
0
0
1
0
0
1
0
0
0
0
0
0
0
0
0
0
0
0
0
0
0
0
0
0
0
0
0
0
0
0
0
0
0
0
0
1
0
0
0
0
0
0
0
1
0
0
0
0
0
0
0
1
0
0
0
0
1
0
0
0
0
0
0
0
0
0
0
0
1
0
1
0
0
0
1
0
				</DataArray>
				<DataArray type="Float64" Name="h" NumberOfComponents="1" Format="ascii">
0.8261088055
0.8261023554
0.8258657561
0.8220659487
0.8285186714
0.8274985263
0.8248207112
0.8194226040
0.8247200597
0.8133601717
0.8188306889
0.8253205698
0.8230810980
0.8177710291
0.8218498220
0.8190072801
0.8217574203
0.8172202844
0.8247583212
0.8176782087
0.8264825488
0.8265450496
0.8283262906
0.8316030467
0.8195726429
0.8194721149
0.8291870525
0.8360221809
0.8304489026
0.8129620614
0.8137251335
0.8294028650
0.8255118799
0.8273926177
0.8427169055
0.8330998524
0.8317904666
0.8296845471
0.8331849791
0.8304547910
0.8310564897
0.8393138264
0.8302803045
0.8316670690
0.8333931352
0.8351435049
0.8312931776
0.8457066099
0.8828284675
0.8731686256
0.8329286210
0.8345800064
0.8327929858
0.8513712648
0.8387041265
0.8323760206
0.8361316796
0.8526657326
0.8580103392
0.8522894934
0.8663613792
0.8625963980
0.8827147531
0.8354971463
0.8333751599
0.8377409346
0.8615162167
0.8734902669
0.8609252143
0.8563959251
0.8562468509
0.8408823599
0.8308949782
0.8579969425
0.8585064914
0.8269698923
0.8546702187
0.8645282733
0.8495932162
0.8303955804
0.8734508644
0.8411526645
0.8997078413
0.8621474674
0.8300862875
0.8286998230
0.8763402538
0.8490380184
0.8670982981
0.8961759874
0.8805299622
0.8292392736
0.8695521043
0.8885436447
0.8352480121
0.8326967324
0.8369123262
0.8304386994
0.8334000759
0.8776920761
0.8961214863
0.8731061007
0.8447861780
0.8477440607
0.8042958411
0.8504489705
0.8264866535
0.8900273444
0.8665282329
0.8394089448
0.8805909051
0.8901524428
0.8741639403
0.8818537360
0.8552479063
0.8918587261
0.8482164418
0.8099858574
0.8883567618
0.8655471601
0.8057145272
0.8412971947
0.8227218709
0.7919627009
0.8750525050
0.8901283108
0.8578992862
0.7905121894
0.8889070207
0.8924015933
0.8865864994
0.8321386372
0.8671588106
0.8915736552
0.8053398707
0.8882286855
0.8114338136
0.8927625510
0.8808192404
0.8241745128
0.7897656463
0.7981973304
0.8879874389
0.8291752242
0.8262386961
0.8843158091
0.8179785080
0.8971627501
0.7957579782
0.8972466188
0.8064195000
0.8932461578
0.8933512543
0.8959564480
0.8784592867
0.8947927746
0.8965738074
0.7988051333
0.8967200768
0.7700726357
0.8294172903
0.8970804790
0.8156782443
0.7839110024
0.7943000689
0.8958608658
0.8321380098
0.8240784182
0.7775498870
0.8939409463
0.8959822791
0.7664295001
0.8964384736
0.7959930793
0.8353796336
0.8982027942
0.8333047643
0.8992646152
0.8982956237
0.7828011021
0.8954914749
0.8349923711
0.7676705625
0.8199660261
0.7639148015
0.7505070156
0.8332139999
0.8975615835
0.7718948959
0.7456569509
0.8327504369
0.8979848771
0.7545006066
0.8321582192
0.8983330010
0.8990613553
0.7881389567
0.8285288069
0.8292590295
0.8965431861
0.7440008736
0.8183036204
0.7485303707
0.8976032573
0.8224205184
0.7662824040
0.8233897292
0.8041938748
0.8243172816
0.8340628463
0.8348073629
0.7555547001
0.7808778386
0.7630803584
0.8148664807
0.8303833657
0.8296363373
0.7790688083
0.8372303739
0.7602154322
0.8182432534
0.8874011259
0.8369579133
0.8596323039
0.8146131361
0.8985918632
0.9005264467
0.8311782033
0.8154248494
0.8961301879
0.8979339029
0.8747576645
0.8203596400
0.8968081291
0.9002533690
0.8438577113
0.8356019719
0.8299680281
0.7568248624
0.8415806457
0.8401867917
0.8095827651
0.7728590424
0.8385009908
0.8109307262
0.8293138943
0.7729960982
0.8387235448
0.8207220622
0.7853426428
0.8369209627
0.8431936772
0.7869922985
0.8298026062
0.8346008605
0.7698766309
0.8347937114
0.8213432097
0.7630836334
0.8692387755
0.8436172199
0.8095062563
0.8188356436
0.8480272883
0.8144080807
0.9008805593
0.8997977894
0.8168014435
0.8967572005
0.8807841555
0.9004498635
0.8400756917
0.8945457931
0.8365649948
0.8523381493
0.8150996375
0.8107300351
0.8319856166
0.8650710633
0.8120957193
0.9006288445
0.8970089495
0.8989970737
0.9020276448
0.8932202849
0.8838023175
0.8234681813
0.8383607569
0.7796278144
0.7800616528
0.8362650086
0.8405891483
0.8165116372
0.8171728664
0.8501987653
0.8476232219
0.8455243924
0.8290610106
0.7925198381
0.7698794250
0.7773030832
0.8277937188
0.8448525875
0.8416884746
0.8341354833
0.8454888120
0.8513423007
0.8418752584
0.7925505342
0.8095970583
0.8236426405
0.8099751875
0.8969963734
0.8198235588
0.8976427669
0.8576823227
0.8522145738
0.8895212455
0.9008284914
0.8464993542
0.8358639991
0.8074755677
0.8715015941
0.9023804579
0.8060765595
0.8123128790
0.8206130076
0.8996515593
0.8393230025
0.8751646064
0.8989039597
0.9030859106
0.8974978370
0.8201964520
0.8535924543
0.8102590795
0.8867566745
0.8444814432
0.9020667681
0.8604397629
0.8572131943
0.8544268804
0.7870883682
0.8482983063
0.8261290853
0.8481018955
0.8249002518
0.7881737356
0.8911026058
0.8430639515
0.8517769811
0.8373087282
0.8358456906
0.7998153226
0.9024563395
0.8556411587
0.8533570605
0.8610255013
0.8507519080
0.8595321129
0.8631501204
0.8983374640
0.7773049738
0.8530543032
0.8418899508
0.8381884061
0.8742119847
0.8651176634
0.8284885415
0.7856318932
0.8475711941
0.8820311487
0.8005460239
0.9014037047
0.8450875012
0.8264296152
0.9027014707
0.8325447480
0.8921711054
0.8165913779
0.8287474594
0.8811970456
0.8966507353
0.8622444377
0.8613471523
0.8552087746
0.8064441833
0.8136424819
0.8073464648
0.8979484180
0.8975615425
0.8306456055
0.8277120793
0.9057936795
0.9029716861
0.8430185444
0.8416366321
0.8751192996
0.8846881140
0.9056225302
0.8082343452
0.8942005250
0.9040332100
0.8639232662
0.9067233647
0.9002225837
0.8785857010
0.8143804727
0.8062703009
0.9016317702
0.8138257613
0.8579822547
0.8470810862
0.8624688443
0.8545299248
0.8991625833
0.8807733899
0.8645943077
0.8489764612
0.8255801788
0.8880408106
0.8899580329
0.8341033126
0.8781677184
0.9031955501
0.8206859936
0.8997786655
0.7955530373
0.8699980386
0.8582823990
0.8323768010
0.9092768190
0.8518239826
0.8934607628
0.8474574063
0.8305101668
0.9113556416
0.8643073573
0.8998961578
0.8987124260
0.8799049282
0.8933675344
0.8453803906
0.8938058474
0.8946839528
0.8610334933
0.8169546672
0.8909988611
0.8318442310
0.8853466380
0.8720414415
0.8955619018
0.7856332352
0.8400011983
0.8627088924
0.8899604179
0.9149016045
0.9018808920
0.8704647135
0.9182505793
0.8080756666
0.8529877386
0.8652739704
0.8961660830
0.8650763879
0.8352158694
0.8154719846
0.8123987046
0.9104215672
0.8443028708
0.9016514574
0.8750370522
0.8716120269
0.8733598461
0.8412182541
0.8102286271
0.9362564785
0.9057873271
0.8054442491
0.8401504594
0.8515822613
0.8665305580
0.8559280020
0.9001690334
0.9537295717
0.9360459502
0.8873211764
0.8640891034
0.8202590558
0.8828337840
0.9019183437
0.8247129046
0.9478818079
0.8181012745
0.8416342913
0.8923332300
0.8717029436
0.9573935268
0.8532374189
0.8613699206
0.9396207462
0.9274930384
0.9016108545
0.8846837282
0.9056158591
0.8753783790
0.8076517385
0.7951224644
0.8638191211
0.9115241156
0.8640920724
0.8701528630
0.9143666318
0.8750210916
0.9047234966
0.8054476331
0.8952089581
0.8888402062
0.8082236634
0.8818562741
0.8701592257
0.8735712909
0.8933420923
0.8997656591
0.8699014625
0.9050908824
0.8645595162
0.8912803775
0.9075175460
0.8803774590
0.8775543844
0.8652632730
0.8693409943
0.8471925020
0.8443079284
0.9175216507
0.8181060778
0.8716858427
0.7951235516
0.9075173853
0.8665423328
0.9157757737
0.8970988720
0.7993452687
0.9080465167
0.8773892836
0.8525375917
0.8733582622
0.9122563090
0.8895019293
0.9185512512
0.9031818953
0.8595814013
0.9150246722
0.8210790622
0.9117713254
0.8777074264
0.8799866152
0.8931620064
0.9084170317
0.8825239128
0.8698093494
0.9019041518
0.8559280496
0.9173353719
0.8643736162
0.8753684844
0.8154778889
0.9208306309
0.8956313835
0.8834626642
0.9039029544
0.9230408594
0.9086821607
0.8256032146
0.8200639986
0.8575344405
0.9033185043
0.9143702992
0.8933729725
0.8870050090
0.8318972359
0.9396251037
0.8706484607
0.9059174261
0.8583042948
0.8999467776
0.8471515774
0.8169432762
0.8928185323
0.8998482934
0.9182810756
0.8958315136
0.9184961020
0.8980666823
0.8400342207
0.8926602874
0.8107764071
0.9487441876
0.9087031532
0.9096410079
0.8932409239
0.9369441210
0.8799883686
0.8207176795
0.9042094797
0.9160733334
0.9471652553
0.8808244767
0.8723919068
0.9126651684
0.8457469359
0.9434588913
0.8853773942
0.9033170409
0.8701574569
0.9270069206
0.8471965110
0.8834498726
0.8803757721
0.8698906716
0.9138063925
0.9080293365
0.8335318839
0.8082270772
0.8914826113
0.8834746675
0.9860726851
0.8210845983
0.9008816603
0.9160730555
0.8901383556
0.9053292664
0.8777106201
0.8818409142
0.8825161870
0.8595792695
0.9735482522
0.9888544696
0.9541384507
0.9140098455
0.7993460475
0.9130197579
0.9185481984
0.8958622678
0.9435450793
0.9390729848
0.9150254309
0.9086110828
0.9499626393
0.8858343636
0.8904382054
0.8283420821
0.8654956500
0.8832157029
0.8953914783
0.8957143779
0.8773740557
0.9634658218
0.8847279097
0.8175021031
0.8534316298
0.9415939933
0.9807581322
0.9887573299
0.9498808467
0.8763493186
0.8938375022
0.8411052385
0.8763047953
0.9738351448
0.9817649836
0.9175222820
0.9093624841
0.9179195738
0.8958780044
0.9812702474
0.8957961650
0.9005781507
1.0157378775
1.0102973897
0.9103344435
0.9093568334
0.9918435002
0.9069653977
0.9050025245
0.8912232453
1.0062114606
1.0103767026
1.0136107178
0.9022916775
0.8961864964
0.8856842794
0.8881757219
0.8944816321
1.0019524636
1.0155840735
0.9635833824
0.9844624944
0.8803039428
1.0247871723
1.0301705637
0.8805809009
0.9888525977
0.9739272212
0.8723923262
1.0330478436
0.9031785570
1.0044241262
0.8827266877
0.8913772718
1.0324383550
0.8853755707
1.0243509196
1.0001203572
0.8698079455
0.9860274617
0.8686239766
0.8673651754
0.9775852705
0.9679281581
0.8472353512
0.8260613358
0.8268089677
0.8268136283
0.8260504076
0.8234349638
0.8253121120
0.8188296523
0.8231292368
0.8289533638
0.8274941813
0.8285268957
0.8289501623
0.8247171940
0.8218571298
0.8248099306
0.8171687807
0.8231311837
0.8234429449
0.8216053711
0.8172238906
0.8220784756
0.8258761982
0.8247729453
0.8129632751
0.8199923876
0.8226117193
0.8194211771
0.8194645533
0.8195602607
0.8133614502
0.8230649269
0.8230754732
0.8299608031
0.8250736788
0.8281060727
0.8171647084
0.8141288491
0.8216019863
0.8273784364
0.8255098381
0.8294109654
0.8296163655
0.8304399612
0.8336027858
0.8217701238
0.8190162087
0.8302940081
0.8331982697
0.8226204476
0.8199913358
0.8310520059
0.8177709982
0.8181180240
0.8299729935
0.8283052552
0.8470195026
0.8265334750
0.8354078190
0.8230619068
0.8264953983
0.8280936965
0.8271136241
0.8382140267
0.8456775318
0.8250786480
0.8333779661
0.8329080977
0.8313104884
0.8360028460
0.8316139717
0.8304307503
0.8361249683
0.8333392010
0.8291912036
0.8359628608
0.8158360321
0.8335920188
0.8409281456
0.8395692070
0.8296153452
0.8327975544
0.8470485945
0.8814279602
0.8750498908
0.8271033016
0.8354270966
0.8377165084
0.8382012458
0.8331079343
0.8333945390
0.8296695595
0.8438672762
0.8427449496
0.8826779906
0.8734425622
0.8401927155
0.8318097891
0.8354870307
0.8409422328
0.8513224527
0.8520261927
0.8316360451
0.8579531768
0.8512558660
0.8408617497
0.8308866777
0.8584111489
0.8313815180
0.8306351888
0.8359850438
0.8649566976
0.8395972215
0.8393263429
0.8546399533
0.8562189493
0.8590082332
0.8584697357
0.8333269712
0.8322710067
0.8608975816
0.8394673548
0.8158390492
0.8563668809
0.8377361970
0.8438958456
0.8343207758
0.8402003284
0.8653512173
0.8468348753
0.8699091007
0.8828551046
0.8345765346
0.8751053407
0.8351228343
0.8411568786
0.8621058303
0.8442142234
0.8814624955
0.8732062111
0.8663842509
0.8626195329
0.8322585137
0.8690807488
0.8590396983
0.8580427725
0.8515608402
0.8512840709
0.8294273145
0.8333445537
0.8513538367
0.8394942245
0.8450267952
0.8387201505
0.8626482139
0.8584373079
0.8649816447
0.8323812812
0.8439535983
0.8581679339
0.8313870588
0.8513912180
0.8520568698
0.8523181841
0.8291438076
0.8526953613
0.8306195952
0.8695314893
0.8653807989
0.8477110337
0.8334050739
0.8442288004
0.8317683972
0.8468604531
0.8730915981
0.8573109758
0.8739455238
0.8542561348
0.8377415687
0.8961286362
0.8615555331
0.8455785833
0.8304315604
0.8707073930
0.8326934429
0.8459654711
0.8699662243
0.8776819708
0.8503991020
0.8343233086
0.8986564498
0.8439639434
0.8664960031
0.8901310879
0.8691038066
0.8581993882
0.8741374087
0.8450498519
0.8270043745
0.8772235807
0.8515926606
0.8645557729
0.8333556054
0.8788142201
0.8294503341
0.8805409460
0.8394177110
0.8626753865
0.8739669604
0.8986317043
0.8493203793
0.8707227545
0.8286550652
0.8412929052
0.8664362828
0.8456097350
0.8126829557
0.8459881141
0.8542740141
0.8301029051
0.8304171590
0.8763510121
0.8996839494
0.8734630070
0.8482172245
0.8496225801
0.8573796089
0.8057090699
0.8490808709
0.8317833241
0.8788219670
0.8321188440
0.8683154964
0.8087629552
0.8901214248
0.8733197160
0.8806540168
0.8671267245
0.8352653362
0.8885763373
0.8926003967
0.8961741356
0.8805414529
0.8895210292
0.8537747837
0.8750067985
0.8578631080
0.8773046323
0.8924166017
0.8447898532
0.8943195010
0.8632750524
0.8493268922
0.8126892740
0.8664702956
0.8824227386
0.8053389654
0.8882293564
0.8671202193
0.8043056493
0.8369628303
0.8262103189
0.8546616383
0.7981943443
0.8746285095
0.8087803703
0.8925864527
0.8818784183
0.8900371916
0.8123065898
0.8538041470
0.8806731371
0.8552685367
0.7957521802
0.8683900077
0.8879998540
0.7858008022
0.8918371225
0.8733529503
0.8843205135
0.8895324522
0.8265350248
0.8016176820
0.8252688097
0.8489568289
0.8944918650
0.8943106801
0.8824555673
0.8002645893
0.8905433195
0.8951840986
0.8809257034
0.8655850125
0.8634039983
0.8932587333
0.8099849674
0.8834134484
0.8883588956
0.8107914378
0.8063877201
0.8933677827
0.8784557801
0.8123323297
0.7858056229
0.8240678892
0.7942866181
0.8746900728
0.8958165306
0.8016195899
0.7853632084
0.8974504270
0.8428396766
0.8547579834
0.7919641928
0.8888949328
0.8294079152
0.7990242633
0.8227654516
0.8865811063
0.8062080026
0.8156574827
0.8865482350
0.8970989376
0.7905187836
0.8967353109
0.8809256140
0.8114663650
0.8915595322
0.8946165468
0.8369407065
0.8951745532
0.8930609685
0.8927433764
0.8964540869
0.8116491886
0.8032629288
0.8808192987
0.8107888056
0.8490992772
0.8002918765
0.8944766893
0.8253076890
0.8834106954
0.8939599353
0.8870454672
0.8905284592
0.8959962312
0.7959742003
0.8972319397
0.7676607507
0.8335151045
0.7990339871
0.7853717987
0.8972685952
0.8953642554
0.8971827266
0.8291777919
0.8971444555
0.8179919868
0.7827850984
0.8974387063
0.8062090218
0.8429326042
0.7751559215
0.7897793923
0.8955138740
0.8865385365
0.8333034130
0.8850998210
0.8241856279
0.8957977526
0.7778734130
0.7718902820
0.8947671785
0.8965580452
0.8032861150
0.8247284046
0.8945986663
0.8042073587
0.8116538300
0.8370412369
0.7639141337
0.8930376411
0.8959385667
0.7988172501
0.8870355032
0.8332002651
0.8231108268
0.8983481000
0.8321408674
0.7778834313
0.8972468318
0.8990816140
0.7751687736
0.8971671339
0.8850920352
0.8975873926
0.7625483980
0.8953465214
0.8335852205
0.7805548375
0.8979975226
0.8898949889
0.7839225640
0.8958371143
0.8321493262
0.8984373874
0.7700805175
0.8182369544
0.8975485436
0.7664319339
0.7485286323
0.8353966464
0.8976213183
0.8248090102
0.7775509724
0.7439993937
0.8042077605
0.8292421848
0.8972150687
0.8982818818
0.7900609096
0.7625538428
0.7805628224
0.7555517440
0.8984258186
0.8975686767
0.7732112634
0.9000762731
0.8350121567
0.8898825812
0.8981869336
0.8231754338
0.7510652623
0.7475829879
0.8992544603
0.7808607017
0.8242820746
0.8327633138
0.8979384835
0.8975344854
0.7456584532
0.8972022515
0.8973436463
0.8970612734
0.8200171237
0.7505077428
0.8975487322
0.8182081465
0.7729871039
0.8293051818
0.7944714331
0.8109053392
0.8285534977
0.7475842094
0.8240229695
0.7608891872
0.8385487603
0.7922968477
0.7900795736
0.8355953265
0.7545036135
0.7528241776
0.9000567332
0.7881600063
0.7586878396
0.8213260290
0.7989309610
0.8297836431
0.8347683713
0.7869716122
0.8387170623
0.7510671914
0.7568220147
0.7732247289
0.8978633569
0.8225093590
0.8224478614
0.8973422514
0.8837228166
0.8400558237
0.8970514642
0.8521431860
0.8120385267
0.8989930642
0.9006389147
0.9013836882
0.8233513858
0.8167591214
0.8945292872
0.8965357492
0.8690850179
0.8143273838
0.8967588708
0.9022310378
0.9008834386
0.8363982325
0.8348094626
0.8362665964
0.7973457999
0.7602203793
0.8455199985
0.8405791498
0.7923237250
0.8240478988
0.7944981309
0.7667322400
0.8274400750
0.8171542024
0.7796195457
0.7608950018
0.8340641226
0.8042245562
0.8234020782
0.7662882323
0.8372438225
0.8277824632
0.7925322964
0.7528256042
0.8418895961
0.8448582117
0.7790845392
0.8304010805
0.8341112984
0.8047652333
0.7651432581
0.8296556292
0.7989600479
0.8148903193
0.7586896589
0.8748555045
0.8464967302
0.8266172778
0.8102134741
0.8122335166
0.8391105841
0.8204655053
0.9022210105
0.9002463876
0.8996332827
0.8154737184
0.8968034887
0.9029235024
0.8750219389
0.8989023985
0.8369427983
0.8978603173
0.8961420674
0.8440068155
0.8597728874
0.8197754835
0.8074306268
0.8234940931
0.8574687058
0.8146900921
0.9005162970
0.9013708659
0.8969881874
0.8225407455
0.8985922312
0.9023664214
0.8894693151
0.9028947395
0.8874510841
0.8313108605
0.8444664512
0.8040175494
0.7728647951
0.7667406121
0.7870820866
0.8299748202
0.8401917331
0.8347275371
0.8248896255
0.8274752238
0.8096080281
0.8544306414
0.8482848912
0.8415362344
0.7973713707
0.8358382511
0.7998034471
0.7651451945
0.7722412620
0.8207405532
0.8431865657
0.8418645891
0.8119598005
0.8346232927
0.8047870431
0.8507430524
0.8530546510
0.8369175514
0.7853590360
0.8143299348
0.8321586641
0.8062414696
0.8970122113
0.8151439215
0.8941694349
0.8652303882
0.8552216792
0.8932486381
0.9028946687
0.9027319723
0.9001818656
0.8353332705
0.8436313701
0.8275426245
0.8108114614
0.8637486962
0.9020350048
0.8063947682
0.8189609020
0.8135526191
0.8998095441
0.8266566358
0.9013106280
0.8482212193
0.8808746151
0.9004494714
0.9026718824
0.8966256190
0.8286979001
0.8448821206
0.8095652921
0.8811013218
0.9029235233
0.8991395661
0.8323863628
0.8455183707
0.8489529057
0.8383645916
0.8040364696
0.9002749197
0.8955770248
0.8646095016
0.8527555769
0.8582712514
0.8502059986
0.8491520805
0.8781331100
0.9042158276
0.7800669685
0.8476357860
0.8347669721
0.8340969308
0.8545301931
0.8165290527
0.8579677811
0.8796425724
0.8305090787
0.7955491401
0.8409739523
0.8718726857
0.8120623123
0.8945993336
0.8337115064
0.8529657583
0.8390673239
0.8290739568
0.7925338137
0.8958057944
0.9013550368
0.8610454217
0.8442842936
0.8627082712
0.8455005758
0.8600779953
0.8680878345
0.8997103771
0.7722430642
0.8513367127
0.8417128605
0.8208750239
0.8453737781
0.8119730340
0.8627682416
0.8746007332
0.8242100117
0.7801439801
0.8428972133
0.8846138801
0.8080696034
0.8994923032
0.9001084980
0.8482386362
0.8537912694
0.9137414765
0.9005242210
0.8201702778
0.9031100070
0.8401533992
0.8445658782
0.8796464875
0.8872659938
0.8828365603
0.9106707094
0.8246607466
0.9013273004
0.8202450719
0.9031425001
0.8868199121
0.9028871766
0.8975135558
0.8650860709
0.8530991162
0.8521996121
0.8061163545
0.8207605204
0.9038111577
0.8076448804
0.9016181770
0.8961162050
0.8411732663
0.8360657697
0.9096416073
0.9016072157
0.8350847220
0.9027449607
0.8297240284
0.8354779667
0.8784623660
0.8976863155
0.8880127425
0.9107066633
0.8123720315
0.8976609862
0.8353772701
0.9087120786
0.8716411398
0.9104237147
0.9008581103
0.8715099460
0.8096418872
0.8100521668
0.9057965726
0.8101924723
0.8463755042
0.9003378199
0.8538979822
0.8970246871
0.8888403740
0.8527713659
0.8735627927
0.8842695499
0.8481095239
0.9012058657
0.8887105749
0.8863544850
0.9011701164
0.9023274707
0.8604249396
0.8527446988
0.8176601991
0.8796465931
0.8258499261
0.8798946085
0.8884282999
0.8261390360
0.8829188207
0.9042622769
0.8234501536
0.8931477761
0.8526999652
0.8775522386
0.9015990216
0.7881783583
0.8454776236
0.8718994203
0.8572229065
0.8742164726
0.8880393287
0.9185278671
0.9083894757
0.8258264162
0.8693588558
0.9097988336
0.8491639802
0.8956100719
0.9139186942
0.8120731124
0.8455476508
0.8409536168
0.8289829463
0.9031490585
0.8430868071
0.9073864188
0.8711790349
0.8699839673
0.9019362617
0.8932237087
0.8651277175
0.8720433729
0.8853075328
0.8381981271
0.9003346366
0.8995990937
0.8934436185
0.8983245901
0.8556367685
0.8631858382
0.8127378597
0.8939895042
0.8939877064
0.8850609837
0.8208810169
0.8911453624
0.9024948674
0.8371934082
0.8830465605
0.8667635968
0.8975176827
0.7801456393
0.8290487517
0.8474785295
0.8595517636
0.8610245616
0.8798991161
0.9137752509
0.9019095435
0.8284723420
0.8623274865
0.9043583326
0.8428955781
0.8846456022
0.9207268859
0.8005548356
0.8517961990
0.8442708712
0.8373249675
0.8589531239
0.8975947475
0.9434598480
0.9369351930
0.8977186498
0.8622315178
0.8515798722
0.8431880229
0.8880098900
0.9039044534
0.8147748803
0.8082563774
0.9067207401
0.9487376783
0.8227339532
0.8445629110
0.8362437804
0.9030128306
0.8986280973
0.8713400939
0.9499582659
0.8786776775
0.8674632154
0.9279648741
0.9320839021
0.8994794700
0.8751155478
0.9035502245
0.9035457749
0.8716769817
0.8307076563
0.8139088051
0.9319932660
0.9016203015
0.9133501629
0.7975034308
0.8325418195
0.8575207806
0.9072675389
0.8558741736
0.8724696743
0.8638073880
0.8511359286
0.9197556325
0.8485781726
0.9014530381
0.9471627613
0.9307696690
0.8922132968
0.8577099643
0.8265713185
0.8784599592
0.9004573135
0.8166384490
0.9133474286
0.9435346978
0.8100909531
0.8354747942
0.8311086176
0.9005555214
0.8958362367
0.8666570065
0.9509191829
0.8614950046
0.8558719097
0.9342715229
0.9212653314
0.8979389704
0.8796425731
0.9107009908
0.8953564391
0.8729232795
0.8482420029
0.8073765754
0.9297101621
0.9038047307
0.7891200935
0.8297207588
0.8689150686
0.8597921537
0.9124780880
0.8451449383
0.8674654237
0.8685035309
0.9082991647
0.9152522370
0.8227405437
0.8713228910
0.9023264949
0.7975074277
0.8887008973
0.8987122222
0.8598043095
0.9150652409
0.8818699718
0.8945727810
0.8165319877
0.9071282314
0.9079543151
0.8848806996
0.8652335053
0.8555058153
0.8685077317
0.9134556374
0.8652377172
0.8242064998
0.8884297607
0.8940074371
0.8828767894
0.8958782827
0.9047242352
0.8627800151
0.9079822459
0.9061993163
0.8756197163
0.9003465220
0.8681371564
0.9107588695
0.8607006628
0.8463513201
0.8338924942
0.8842685977
0.8475612335
0.9040113394
0.9158120577
0.8934296929
0.8753625534
0.8780694347
0.9021376281
0.9161677272
0.8746052398
0.8737498082
0.9210231325
0.8830575564
0.8755968914
0.8737559227
0.8929767713
0.8589498027
0.9192133965
0.8627840539
0.8550941740
0.8362511396
0.8820542990
0.9172896450
0.8100965335
0.8666422596
0.9097001853
0.7891217144
0.8852927549
0.9040110830
0.8912758835
0.8638183253
0.9153854186
0.8799088740
0.8986655470
0.8058053542
0.9093594198
0.8816903681
0.8574407731
0.8716732113
0.9136719942
0.8624558590
0.8704600931
0.8946827919
0.8913794299
0.8983870207
0.9050867333
0.9098288079
0.9046082838
0.8665660237
0.8938073862
0.9153057887
0.8614721232
0.8292790669
0.8850675657
0.9210037382
0.9097005805
0.9118914324
0.8812820881
0.8827282566
0.9074022450
0.9182722052
0.8846767682
0.8728546005
0.8853550870
0.9139391451
0.8485841872
0.9173889709
0.8720340614
0.8421977274
0.8311138093
0.8712609351
0.8729110548