<VTKFile type="UnstructuredGrid" version="0.1">
	<UnstructuredGrid>
		<Piece NumberOfPoints="1862" NumberOfCells="3498">
			<CellData>
				<DataArray type="Int32" Name="type" NumberOfComponents="1" Format="ascii">
0
0
0
0
0
0
0
0
0
0
0
0
0
0
0
0
1
0
0
1
0
0
0
0
0
0
0
0
0
0
0
0
0
1
0
0
0
0
0
0
0
0
0
0
0
0
0
0
0
0
1
0
0
0
0
0
0
0
0
0
0
1
0
0
0
0
0
0
0
0
0
0
0
0
0
0
0
0
0
0
0
0
0
0
0
0
0
0
0
0
0
0
0
0
0
0
0
0
0
0
0
0
0
0
0
0
0
0
0
0
0
0
0
0
0
0
0
0
0
0
0
0
0
1
0
0
0
0
0
0
0
0
0
0
0
0
0
0
0
0
0
0
0
0
0
0
0
0
0
0
0
1
0
1
1
0
0
0
0
0
0
0
0
0
0
0
0
0
1
0
1
0
0
0
0
1
0
0
0
0
0
0
0
0
1
1
0
0
0
0
0
1
0
0
0
0
0
0
0
0
1
0
0
0
0
0
0
0
0
0
0
0
0
0
0
0
0
0
0
0
0
0
0
0
0
0
0
0
0
0
0
0
0
1
0
0
0
0
0
0
0
0
0
0
0
0
0
0
0
0
0
0
0
0
0
0
0
0
0
0
0
0
0
0
0
0
0
0
0
0
0
0
0
0
0
0
0
0
0
0
0
1
0
0
0
0
0
0
0
0
0
0
0
0
0
0
0
0
0
0
0
0
0
0
0
0
0
0
0
0
0
0
0
0
0
0
0
0
0
0
0
0
0
0
0
0
0
0
0
0
0
0
1
0
0
0
0
0
0
0
0
0
0
0
0
0
0
0
0
0
0
0
0
0
0
0
0
0
0
0
0
0
0
0
0
0
0
0
0
0
0
0
0
0
0
0
0
0
0
0
0
0
0
0
0
0
0
0
0
0
1
0
0
0
0
0
0
0
0
0
0
0
0
0
0
0
0
0
0
0
0
0
0
0
0
0
0
0
0
0
0
0
0
0
0
0
0
0
0
0
0
0
0
0
0
0
0
0
0
0
0
0
0
0
0
0
0
0
0
0
0
0
0
0
0
0
0
0
0
0
0
0
0
0
0
0
0
0
0
0
0
0
0
0
0
0
0
0
0
0
0
0
0
0
0
0
0
0
0
0
0
0
0
0
0
0
0
0
0
0
0
0
0
0
0
0
0
0
0
0
0
0
0
0
0
0
0
0
0
0
0
0
0
1
0
0
0
0
0
0
0
0
0
0
0
0
0
0
0
0
0
0
0
1
0
0
0
0
0
0
0
0
0
0
0
0
0
0
0
0
0
0
0
0
0
0
0
0
0
0
0
0
0
0
0
0
0
0
0
0
0
0
0
0
0
0
0
0
0
0
0
0
0
0
0
0
0
1
0
0
0
0
0
0
0
0
0
0
0
0
0
0
0
0
0
0
0
0
0
0
0
1
0
0
0
0
0
0
0
0
0
0
0
0
0
0
0
0
0
0
0
1
0
0
0
1
0
0
0
0
0
0
0
0
0
0
0
0
0
0
0
0
0
0
0
0
0
0
0
0
0
1
0
0
0
0
0
0
0
1
0
0
0
0
0
0
0
0
0
0
0
0
0
0
0
0
0
0
0
0
0
0
0
0
0
0
1
0
0
0
0
0
0
0
1
0
0
0
0
0
0
1
0
0
0
0
0
0
0
0
0
0
0
0
0
0
0
0
0
0
0
0
0
0
0
0
0
0
0
0
0
0
0
0
0
0
0
0
0
0
1
0
0
0
0
0
1
0
0
0
0
0
0
0
1
0
0
0
0
0
0
0
0
0
0
0
0
0
1
0
0
0
0
0
0
0
0
0
0
0
0
0
0
0
0
0
0
0
0
0
0
0
0
0
0
0
0
0
0
0
0
0
0
0
0
0
0
0
0
0
0
0
0
0
0
0
0
0
0
0
0
0
1
0
0
0
0
0
0
0
0
0
0
0
0
0
0
0
0
0
0
0
1
0
0
0
0
0
0
0
0
0
1
0
0
0
0
0
0
0
0
0
0
0
0
0
0
0
0
0
0
0
0
0
0
0
0
0
0
0
0
0
1
0
1
0
0
0
0
0
0
0
0
0
0
0
0
0
0
0
0
0
0
0
0
0
0
0
0
0
0
0
1
0
0
0
1
0
0
0
0
0
0
0
0
0
0
0
0
0
0
0
0
0
0
0
0
0
0
0
0
0
0
0
0
1
0
0
0
0
0
0
0
0
0
0
0
0
0
0
0
0
0
0
0
0
0
0
0
0
0
1
0
0
0
0
0
0
0
0
0
0
0
0
0
0
0
0
0
0
0
0
0
0
0
1
0
0
0
0
0
0
1
0
0
0
0
0
0
0
0
0
0
0
1
0
0
0
0
0
0
0
0
0
0
0
0
0
0
0
0
0
0
0
0
1
0
0
0
0
0
0
0
0
0
0
0
1
0
0
0
0
0
0
0
0
0
0
0
0
0
0
0
0
0
0
0
0
0
1
0
0
0
0
0
0
0
0
0
1
1
0
1
0
1
0
0
0
0
0
0
0
0
0
0
0
1
0
0
0
0
0
1
1
0
0
0
0
0
0
1
0
0
0
0
0
1
1
1
0
0
0
0
0
0
0
0
0
0
0
0
1
1
0
0
1
0
0
0
0
0
1
0
0
0
1
0
1
0
0
0
0
0
0
0
1
0
0
0
0
0
0
0
1
0
0
1
0
0
0
0
0
0
0
0
0
0
0
0
0
0
0
1
0
0
0
0
0
0
0
0
0
0
0
0
0
0
0
0
0
0
0
0
0
0
0
0
0
0
0
0
0
0
0
0
0
0
0
0
1
0
0
0
0
0
0
1
0
0
0
1
0
0
0
0
0
0
0
0
0
0
0
1
0
0
0
0
0
0
0
0
0
0
0
0
0
0
0
0
0
0
0
0
0
0
0
0
0
0
0
0
0
0
0
0
0
0
0
0
0
0
0
0
1
1
0
0
0
0
0
0
0
0
0
0
0
0
0
1
0
0
0
0
0
0
0
0
0
0
0
0
0
0
0
0
0
0
0
0
0
0
0
0
0
0
0
0
0
0
0
0
0
0
0
0
0
0
0
0
0
0
0
0
0
0
0
0
0
0
0
0
0
0
0
0
0
0
0
0
0
0
0
0
0
0
0
0
0
0
0
0
1
1
0
0
0
0
0
0
0
0
1
0
0
0
0
0
0
0
0
0
0
0
0
0
0
0
0
0
0
0
0
0
0
0
1
0
0
0
0
0
0
0
0
0
0
0
0
0
0
0
0
1
0
0
0
0
0
0
0
0
0
0
0
0
0
0
0
0
0
0
0
0
0
0
0
0
0
0
0
0
0
0
0
0
0
0
0
0
0
0
0
0
0
0
0
0
0
0
0
0
0
0
0
0
0
0
0
0
0
0
0
0
0
0
0
0
0
0
0
0
0
0
0
0
0
0
0
0
0
0
0
0
0
0
0
0
0
0
0
0
0
0
1
1
0
0
0
0
0
1
0
0
0
0
0
0
0
0
0
0
0
0
1
0
0
0
0
0
0
0
0
0
0
0
0
0
0
0
0
0
0
0
0
0
0
0
0
0
0
0
0
0
0
0
0
0
0
0
0
0
0
0
0
0
0
0
0
0
0
0
0
0
0
0
0
0
1
0
1
0
0
0
0
0
0
0
0
0
0
0
0
0
0
0
0
0
0
1
0
0
0
0
0
0
0
0
0
0
0
0
0
0
0
0
0
0
0
0
0
0
0
0
0
0
0
0
0
0
0
0
0
0
0
0
0
0
0
0
0
0
0
0
0
0
0
0
0
0
0
0
0
0
0
0
0
0
0
0
0
0
0
0
0
0
0
0
0
0
1
0
0
0
0
0
0
0
0
0
0
1
0
0
0
0
0
0
0
0
0
0
0
0
0
0
0
0
0
0
0
0
0
0
0
0
0
0
0
0
0
0
0
0
0
0
0
0
0
1
0
0
0
0
0
0
0
0
0
0
0
0
0
0
0
0
0
0
0
0
0
0
0
0
0
0
0
0
0
0
0
0
0
0
0
0
0
0
0
0
0
0
0
0
0
0
0
0
0
0
0
0
0
0
0
0
0
0
0
0
0
0
0
0
0
0
0
0
0
0
0
0
0
0
0
0
0
0
0
0
0
1
0
0
0
0
0
0
0
0
0
0
0
0
0
0
0
0
0
0
0
0
0
0
0
0
0
0
0
0
0
0
0
0
0
0
0
0
0
0
0
0
0
0
0
0
0
0
0
0
0
0
0
0
0
0
0
0
0
0
0
0
0
0
0
0
0
0
0
0
0
0
0
0
0
0
0
0
0
0
0
0
0
0
0
0
0
0
0
0
0
0
0
0
0
0
0
0
0
0
0
0
0
0
0
0
0
0
0
0
0
0
0
0
0
0
0
0
0
0
0
0
0
0
0
1
0
0
0
0
0
0
0
0
0
0
0
0
0
0
0
0
0
0
0
0
0
0
0
0
0
0
0
0
0
0
0
0
0
0
0
0
0
0
0
0
0
0
0
0
0
0
0
0
0
0
0
0
0
0
0
0
0
0
0
0
0
0
0
0
0
0
0
0
0
0
0
0
0
0
0
0
0
0
0
0
0
1
0
0
0
0
0
0
0
1
0
0
0
0
0
0
0
0
0
0
0
0
0
0
0
0
0
0
0
0
0
0
0
0
0
0
0
0
0
0
0
0
0
0
0
0
0
1
0
0
0
0
0
0
0
0
0
0
0
0
0
0
0
0
0
0
0
0
0
1
0
0
0
0
0
0
0
0
0
0
0
0
1
1
0
0
0
0
0
0
0
0
0
0
0
0
0
0
0
1
1
0
1
0
0
0
0
0
0
0
0
0
1
0
0
0
0
0
0
1
0
0
0
0
0
0
0
0
0
0
1
0
0
0
0
1
0
1
0
0
0
0
0
0
0
1
0
0
0
1
0
0
0
1
0
1
1
0
0
1
1
0
0
0
1
0
0
0
1
0
0
0
0
0
0
0
0
0
1
0
0
0
0
0
0
1
0
0
0
0
0
0
0
0
0
0
0
0
0
0
0
0
0
0
0
0
0
0
0
0
0
0
0
1
0
0
1
0
0
0
0
0
0
0
0
0
0
0
0
0
0
0
0
0
0
1
0
0
1
0
0
0
0
0
0
0
0
0
0
0
1
0
0
1
0
0
0
0
0
0
0
0
0
0
0
1
1
0
0
0
0
0
0
0
0
0
0
0
0
1
0
0
0
0
0
0
0
0
0
0
0
0
0
0
0
0
0
1
0
0
0
0
0
0
0
0
0
0
0
0
0
0
0
0
0
1
0
0
0
0
0
0
0
0
0
0
0
0
0
0
0
0
0
0
0
0
0
0
0
0
0
0
0
0
0
0
0
0
0
0
0
0
0
0
0
0
1
0
0
0
0
0
0
0
0
0
0
0
0
0
0
0
0
0
0
0
0
0
0
0
0
0
0
0
0
0
0
0
0
0
0
0
0
0
0
0
0
0
0
0
0
0
1
0
0
0
0
0
0
0
0
0
0
0
0
0
0
0
0
0
0
0
0
0
0
0
0
0
0
0
0
0
0
0
0
0
0
0
0
0
0
0
0
0
0
0
0
0
0
0
1
0
0
0
0
0
0
0
0
0
0
1
0
0
0
0
0
0
0
0
0
0
0
0
0
0
0
1
0
0
1
0
0
0
0
0
0
0
0
0
0
0
0
0
0
0
0
0
0
0
0
0
0
0
1
0
0
0
0
0
0
0
0
0
0
0
0
0
0
0
0
0
0
0
0
0
0
0
0
0
0
0
0
0
0
0
0
0
0
0
1
0
0
0
0
0
0
0
0
0
0
0
0
0
0
0
0
0
0
0
0
0
0
0
0
0
0
0
0
0
0
0
0
0
0
0
0
0
0
0
0
0
0
0
0
0
0
0
0
0
0
0
0
0
0
0
0
0
0
0
0
0
0
0
0
0
0
0
0
0
0
0
0
0
0
0
0
1
0
0
0
0
0
0
0
0
0
0
0
0
0
0
0
0
0
0
0
0
0
0
0
0
0
0
0
0
0
0
0
0
0
0
0
0
0
0
0
1
0
0
0
0
0
0
0
0
0
0
0
0
1
1
0
0
0
0
0
0
0
0
0
0
0
0
0
0
0
0
0
0
0
0
0
0
0
0
0
0
0
0
0
0
0
0
0
0
0
0
0
0
0
0
0
0
0
0
0
0
0
0
0
0
0
0
0
0
0
0
0
0
0
0
0
0
0
0
0
0
0
0
0
0
0
0
0
0
0
0
0
0
0
0
0
0
0
0
0
0
0
0
0
0
0
0
0
0
0
0
0
0
0
0
0
1
0
1
0
0
0
0
0
0
0
1
1
1
1
0
0
0
0
0
0
0
0
0
0
0
0
0
0
0
0
0
0
0
0
0
0
0
0
0
0
0
0
1
1
0
0
0
0
0
0
0
0
0
0
0
0
0
0
0
0
0
0
1
0
0
0
0
0
0
0
1
1
0
1
1
0
0
1
0
0
0
0
0
0
0
1
0
1
0
0
0
0
0
0
0
0
0
0
0
0
0
0
0
0
0
0
0
0
0
0
0
0
0
0
0
1
1
0
0
0
1
1
0
0
0
0
1
0
0
1
0
1
0
0
0
0
0
1
0
0
0
1
0
0
0
0
0
0
0
0
0
0
0
0
0
0
0
0
0
0
0
0
0
0
0
0
0
0
0
1
0
0
0
0
0
0
1
0
0
0
0
0
0
0
0
0
0
0
0
0
0
0
0
0
0
0
0
0
0
0
0
0
0
0
0
0
1
0
1
0
0
0
0
0
0
0
1
0
0
0
0
0
0
0
0
0
0
0
1
0
0
0
0
0
0
0
0
0
1
0
0
0
0
0
0
0
1
0
0
0
0
0
0
0
1
0
0
0
0
0
0
0
0
0
0
0
0
0
0
0
0
0
0
0
1
0
1
0
0
0
0
0
1
0
0
0
0
0
0
0
0
0
0
0
0
0
0
0
0
0
0
0
0
0
0
0
0
0
1
0
1
0
0
0
0
0
0
0
0
0
1
0
0
0
0
0
1
0
0
0
0
0
0
0
0
0
0
0
0
0
0
0
1
0
0
0
0
0
0
0
0
1
0
0
0
0
0
0
0
0
0
0
0
0
0
0
0
0
0
0
0
0
0
0
0
0
0
0
0
0
0
0
1
0
0
0
0
0
0
0
0
0
0
0
0
0
0
0
0
1
0
0
0
0
0
0
0
0
1
0
0
0
0
0
0
0
0
0
1
0
0
0
0
0
1
0
0
0
0
0
0
0
0
0
0
0
0
0
0
0
0
0
0
0
1
0
0
0
0
0
0
1
0
0
0
0
0
0
0
0
1
0
0
0
0
0
0
0
0
0
0
0
0
0
0
1
0
0
1
0
0
0
1
0
0
0
0
0
0
0
0
0
0
0
0
0
0
0
0
1
0
0
0
0
0
0
0
0
0
0
1
0
1
0
0
0
0
0
0
1
0
0
0
0
0
0
0
0
0
0
0
0
0
0
0
0
0
0
0
0
0
0
0
0
0
0
0
1
1
0
0
0
0
0
0
1
0
0
0
0
0
0
0
0
0
0
0
0
0
1
0
0
0
0
0
0
0
1
0
0
0
0
0
0
0
0
0
0
0
0
0
0
0
0
0
0
0
0
0
0
0
0
0
0
0
1
0
0
0
0
0
0
0
0
0
0
1
0
0
1
0
0
0
0
0
0
0
0
0
0
0
0
0
0
0
0
0
0
0
0
0
0
0
0
0
0
0
0
0
1
0
0
0
0
0
0
0
1
0
0
0
0
0
0
0
1
0
0
0
0
1
0
0
0
0
0
0
0
0
0
0
0
1
0
1
0
0
0
1
0
				</DataArray>
				<DataArray type="Float64" Name="h" NumberOfComponents="1" Format="ascii">
0.8361211945
0.8366291316
0.7354616450
0.8048542049
0.7257318587
0.7475500935
0.7746293489
0.8563566749
0.7977643442
0.8951054807
0.8325316680
0.7586059213
0.8876331347
0.8523251732
0.8638545015
0.9326754550
0.7777348125
0.9036897741
0.8514428100
0.8283413427
0.7116531239
0.8933047704
0.7636488884
0.7082746035
0.8011525019
0.9384348904
0.8293697832
0.6986437722
0.7197753115
0.8678949924
0.8423260924
0.7532514062
0.9108480346
0.7306607103
0.6972114090
0.7027575244
0.6942007509
0.7455558900
0.6973714965
0.7026483082
0.7147987979
0.7068418571
0.8068809349
0.7088900907
0.6989771450
0.7001797780
0.7339618884
0.7008691985
0.7729386212
0.7682519144
0.7023596051
0.7016777507
0.7051508328
0.7284493172
0.7029043460
0.7933964949
0.6995306130
0.7065881110
0.7215636998
0.7221785629
0.7172768233
0.7102363994
0.7675617558
0.6988690029
0.6973409137
0.7071633286
0.7593183405
0.7637605751
0.7143604690
0.7081341518
0.7157351347
0.7003875292
0.7330782288
0.7377278158
0.7299542265
0.6823134882
0.7128289235
0.7254746538
0.7021315308
0.6927556581
0.7225931572
0.7186213413
0.7879935574
0.7557065733
0.6831538231
0.6982741311
0.7264701704
0.7433142622
0.7368088770
0.7891488640
0.7430077282
0.6872716408
0.7267292404
0.7872297756
0.7159001489
0.7026046577
0.7302736378
0.6863407702
0.6951223962
0.7329117403
0.7844374551
0.7208344415
0.7312999390
0.7005712551
0.9135593097
0.7491198868
0.7071308517
0.7794428297
0.7324644861
0.7181011532
0.7807061861
0.7845828805
0.7384224137
0.7553780786
0.7429109064
0.7461164165
0.7323972432
0.9012158473
0.7579609318
0.7506639361
0.9062425554
0.7322135620
0.6860658369
0.9037081225
0.7500137757
0.7735892294
0.7418181754
0.9086405594
0.7335915684
0.7534137567
0.7433921978
0.7130950750
0.7475591585
0.7292187021
0.8885798904
0.7523469706
0.9379603481
0.7351787032
0.7255593143
0.9387188099
0.9177875584
0.8932525889
0.7408168801
0.9077651729
0.6932729607
0.7378854741
0.9404477572
0.7522914718
0.9027818386
0.7426591022
0.9366338648
0.7272297399
0.7309886806
0.7240796669
0.7218429173
0.7457684847
0.7291906819
0.9184096785
0.7355090635
0.9207172350
0.9344353151
0.7451188051
0.9401655845
0.9170096585
0.9142965253
0.7606431912
0.8194735782
0.9433777157
0.9165239316
0.7405231005
0.7277732319
0.9188070258
0.7261243059
0.9220823453
0.7852312600
0.7237851593
0.8855869043
0.7704789876
0.7260877277
0.9225926119
0.7549496072
0.7043855081
0.9238062762
0.6795142625
0.9198599759
0.9270096878
0.7255498306
0.7290672752
0.9184300834
0.9247013777
0.6731008020
0.7256853838
0.9253210114
0.6837335628
0.7251715914
0.7711733880
0.9284336728
0.6624938494
0.6710977371
0.7461446671
0.9250984507
0.6930240152
0.9257931189
0.7340252311
0.6601149719
0.9318245781
0.9441043288
0.9384841151
0.6681106663
0.9014903003
0.6732318955
0.9237155845
0.9315873549
0.9351760609
0.9418631597
0.6569429972
0.9382709611
0.9329443094
0.7189637431
0.9274506397
0.6698753057
0.7915173921
0.8123545333
0.7720383718
0.6871669439
0.7690712006
0.7935260840
0.7367003965
0.6629719999
0.7946445623
0.7495720821
0.7840259193
0.7129747950
0.7563400442
0.7795390261
0.7555557242
0.6616458373
0.9420666936
0.9290415102
0.8919112859
0.6646037557
0.9411457296
0.9359220295
0.8777229975
0.9409434281
0.9441134591
0.9353553251
0.6978175268
0.9430077790
0.9369153389
0.9319590016
0.7149501214
0.9362915756
0.6476313633
0.6434860176
0.9395709407
0.9303127579
0.9440480073
0.9351634795
0.7820066537
0.8061844274
0.6706896396
0.7242200433
0.7675293806
0.7019378188
0.7882512358
0.7868621403
0.6517986652
0.7645786231
0.7941712411
0.8027719894
0.7797480136
0.7971933126
0.7496257656
0.7678940926
0.6468809270
0.6976376034
0.7477523309
0.7833505444
0.6755181641
0.7982178454
0.7753697597
0.7782263818
0.7950272389
0.8006143595
0.7917639385
0.7275273045
0.9346259492
0.9383944924
0.9382431932
0.9393925373
0.6529866275
0.9402007609
0.9424238493
0.8783228955
0.6607260226
0.8669149017
0.9395241517
0.9382881109
0.9395615165
0.9411267573
0.9430776993
0.6940591770
0.6356249521
0.6361692983
0.9187153907
0.7139782666
0.9207974136
0.9389496786
0.6566383250
0.7391519824
0.7117166726
0.7830087475
0.6360326108
0.8076314806
0.7787342116
0.7998147624
0.8006211405
0.8003728269
0.7751281603
0.7610842036
0.6851994475
0.7933420435
0.7999398327
0.6835665060
0.7132138722
0.7382045044
0.7923996044
0.7610960530
0.7918935504
0.8048990895
0.8059637175
0.7918156596
0.6354656766
0.7794958354
0.6579350657
0.8026425469
0.9284175498
0.8184749003
0.8608195393
0.6646212213
0.8530444436
0.9391237077
0.6507887215
0.9351061627
0.9216879234
0.9396083091
0.9378494832
0.8152583423
0.6701381322
0.6369296574
0.7645117278
0.9368994093
0.9390495457
0.8225299498
0.9016251825
0.7092851809
0.7170169073
0.9061382688
0.7947615428
0.7975830367
0.8176441296
0.9411189769
0.6947199227
0.6311194603
0.9309557054
0.6424141932
0.6636335972
0.7188986391
0.9399692572
0.7546000093
0.8127771889
0.9367486237
0.8095326393
0.7729219065
0.7544150796
0.8092181156
0.9088056083
0.8094766497
0.6488954733
0.6269253176
0.8004698327
0.7971205407
0.7922232341
0.7906090042
0.7707737762
0.6701709938
0.7274314021
0.7018885851
0.8559449605
0.8034603785
0.6320304193
0.7523216008
0.7019957802
0.8125701483
0.7748378192
0.8957305854
0.8824231159
0.8751656805
0.7652621273
0.6736939052
0.8076166013
0.7986314812
0.7889182309
0.7317111219
0.8034489303
0.8021668060
0.6442395097
0.6993975950
0.8320852674
0.7296216640
0.6499874929
0.7819547934
0.6820308480
0.9124016375
0.8187242033
0.8072061469
0.8354979880
0.7830249683
0.6614770922
0.6496419667
0.6580554404
0.9321725283
0.8082766309
0.8211201843
0.7398797928
0.8139317517
0.9371876478
0.8030703515
0.6561684354
0.6941733665
0.8270630723
0.7736504072
0.8192614506
0.7335103150
0.7423899766
0.8357613553
0.7966583620
0.8161609948
0.6575958312
0.6914380113
0.7979610937
0.9254028152
0.8210638327
0.6611885327
0.8857422447
0.6860655843
0.7451818353
0.7629365859
0.8141978198
0.7902449896
0.8112642556
0.9399641376
0.6420922837
0.6989481932
0.6580572778
0.8318257865
0.8269110402
0.7544313915
0.8365651593
0.9361367817
0.6354854267
0.8926556021
0.8063712374
0.7660703820
0.7667272786
0.7136667799
0.6610430458
0.7609733389
0.9205705155
0.8137588773
0.8206370009
0.7984248911
0.7066459552
0.6275294247
0.7177531889
0.8491975191
0.8580770957
0.9322611086
0.9023962052
0.8971366181
0.6475942691
0.9097613857
0.8100453143
0.8701246460
0.8535343746
0.8077527397
0.8903578753
0.7441890626
0.8866623111
0.6886706016
0.6387684609
0.8573406160
0.9298834592
0.8957376909
0.8686280157
0.8648327803
0.8675898664
0.7848073190
0.8887800416
0.8579451982
0.8492370789
0.8772953103
0.8751716930
0.7652772358
0.7626062300
0.6890184958
0.9357421346
0.6382113999
0.7585615808
0.8903522480
0.6682322030
0.8235492913
0.8206384891
0.6632103091
0.9322640932
0.8119338598
0.6602623508
0.9283315827
0.8270766571
0.6682610929
0.7282975974
0.6951057127
0.8192128287
0.8855607282
0.8304725608
0.8905648215
0.7785869726
0.6922476379
0.6899313368
0.8036437193
0.8927064246
0.7745069869
0.9132964147
0.9205802917
0.8347767100
0.9298906432
0.8649124802
0.9357401691
0.6922521041
0.6476078778
0.8675077762
0.9253261004
0.9333369127
0.9158373130
0.8618176120
0.8869172123
0.7066876203
0.8934743139
0.9110900154
0.8349865708
0.9285931302
0.9021021058
0.7402325876
0.9244488894
0.6890044166
0.6601663880
0.8974176072
0.8218248186
0.8292228635
0.7306889395
0.8898970762
0.8269377829
0.9097599491
0.7913484703
0.7967001169
0.7626398869
0.7136862831
0.8184059685
0.8113231052
0.7821328629
0.7567524967
0.8435948211
0.8037027297
0.6614939765
0.9194417689
0.6341481173
0.6518355219
0.8235606988
0.7459771087
0.8508043632
0.7629749971
0.8579555952
0.9025492974
0.6824573788
0.8991711309
0.8162031401
0.7819977930
0.6860832973
0.9879652596
0.8139926487
0.8918011463
0.8834030271
0.8098845500
0.9985566045
0.6421012019
0.7060946768
0.9255458253
0.8586065541
0.8262359452
0.7271882589
0.7867243829
0.8525169860
0.8707866038
0.7399085568
0.9917355918
0.9577431563
0.8650976971
0.8072413007
0.9108710022
0.9710078748
0.9080780960
0.8635868723
0.9604109891
0.6518349599
0.8866958351
0.8256680138
0.9133093019
0.7821652456
0.6899576044
0.8856097450
0.8308882295
0.6500844696
0.9142222227
0.9283344961
0.8229073825
0.9795201544
0.8952879278
0.9244569572
1.0149988260
0.9577450465
1.0063665227
1.0047318087
0.6601763872
0.8270641548
0.7307297109
0.9021092758
0.8905275494
0.8939487856
0.8770371934
0.7583500661
0.9333361385
0.9836245866
0.9306304262
0.7378840885
0.8533866040
0.8595871096
0.7402367036
0.9828690972
0.8646973632
1.0056727308
0.8440248253
0.9139264833
0.8916103328
0.9973410787
0.7774675376
0.7055858651
0.8618551903
0.8829983448
0.8630223674
0.9188582831
0.9018586924
0.8609329474
0.8944970371
0.8911269379
0.8667840121
0.9407680270
0.8167595609
0.9089152618
0.8783860239
0.8788042905
0.8825955821
0.8347833894
0.9942572634
0.9051097127
1.0186814857
0.8976351032
1.0232898707
1.0180820430
0.9082343935
0.9082931388
0.8862545118
0.9378745647
0.9074760610
0.9760192205
1.0024597529
1.0244900526
0.9100500690
0.9056706750
0.9123762723
0.9823705524
0.9715407136
0.9997298570
0.9915810097
1.0104274160
0.9106205294
0.9163840065
0.8830370680
0.9006577807
0.9690124505
0.9191689016
0.9194159217
0.9625499890
0.8939375810
0.8867823659
0.9108542682
0.9207404897
0.9285982194
0.9030540063
0.9106154292
0.9301519696
0.9205723976
0.9604039118
0.9146277192
0.8964775320
0.8898983587
0.8873129297
0.8925933424
0.8921631183
0.8830684740
0.8727770299
0.8941162883
0.7868149964
0.7730254695
0.7733414707
0.7872873133
0.7855833163
0.7585461371
0.8324133359
0.8333841897
0.7344007421
0.7474423814
0.7258222861
0.7345518291
0.7979893076
0.8635934824
0.7744640117
0.8787792339
0.8335862857
0.7856975271
0.8929156527
0.9036344953
0.8049594154
0.7355223453
0.8508283087
0.8678462695
0.9236817934
0.7517324341
0.8565536826
0.9384508339
0.8010962847
0.8951495215
0.9059714880
0.8879849043
0.7188107525
0.9328638553
0.8210002455
0.8788516802
0.8422913031
0.8931115079
0.7306592108
0.9104636307
0.7527645415
0.8908654447
0.7026316697
0.6910492163
0.7777459029
0.9327265434
0.8060078672
0.6974185814
0.7517621947
0.9237438632
0.7146748857
0.8523880591
0.8283574347
0.7188377627
0.7642846821
0.7062836406
0.8937956405
0.6981561106
0.9062913021
0.7116610157
0.8218108046
0.8419134700
0.7076200571
0.7008580325
0.9330038029
0.6989583495
0.7023539191
0.7334599192
0.6985962851
0.7083078139
0.7199526795
0.6995305673
0.6940199202
0.8302193928
0.6927285867
0.9176727840
0.6910158097
0.7053253995
0.6948470538
0.8913370695
0.7050309169
0.7063016099
0.7763332808
0.7605775983
0.8427886630
0.6981636977
0.6991372462
0.7076084788
0.7027887989
0.6972899678
0.7461618534
0.7046938424
0.6972196965
0.7674983791
0.7636707232
0.7076805288
0.6942041559
0.6988609025
0.7053355294
0.7105882396
0.7151569571
0.7090330109
0.7376681793
0.7249834659
0.7003784481
0.7325986762
0.7103993326
0.6928817563
0.6998982859
0.6927326947
0.7151187808
0.6948549879
0.7068590646
0.7128079010
0.7157090794
0.7343185163
0.7299048087
0.6940396055
0.7203074915
0.7143512913
0.6947581228
0.9176922778
0.7081305608
0.6991498869
0.7047147907
0.7056882209
0.7076624274
0.7550452989
0.7112568336
0.7691388300
0.7730174961
0.7017032528
0.7606653905
0.7001627790
0.7186511043
0.7556299861
0.7172594245
0.7764210621
0.7683371293
0.7172773619
0.7102341215
0.7206871194
0.7211562081
0.7343705629
0.7215998717
0.7179430300
0.7250097313
0.6761091905
0.7118321934
0.7106112627
0.6947672430
0.7129577775
0.7029191045
0.7205026261
0.7104035357
0.7151179498
0.7941416576
0.7189341737
0.7250357058
0.6929778832
0.7284595651
0.7151881534
0.7222090608
0.6872864162
0.7066001675
0.6999689814
0.7267155699
0.7551218936
0.7005624236
0.6951724274
0.7172511056
0.6843474450
0.7112787202
0.7208459681
0.7585272171
0.7326093555
0.7463172028
0.7071286714
0.7843887695
0.7594002851
0.6955056327
0.6863738463
0.7165675539
0.7026418907
0.7161281809
0.7692336042
0.7329130469
0.7490294681
0.7056465302
0.7794678704
0.7189070675
0.7324257519
0.7845007516
0.7211598920
0.7250809518
0.7383863144
0.7129753309
0.6823389828
0.7810426999
0.7179760597
0.7255019598
0.7121104091
0.7360629600
0.6761193460
0.7806043266
0.7181391820
0.7205210573
0.7326250616
0.7794968717
0.7297207509
0.7165574202
0.6982712501
0.7321831928
0.7424331505
0.6955125316
0.9232264720
0.7161342604
0.7463753771
0.6831738513
0.6927295371
0.7264601773
0.7880323307
0.7225834962
0.7323950692
0.7021395983
0.7586415305
0.9062570660
0.7433861267
0.6843862469
0.7360634765
0.7130939608
0.7723604593
0.9282793926
0.7735437204
0.7423490697
0.7481160499
0.7368518634
0.7158822456
0.7873179285
0.7604425969
0.7892076100
0.7430217545
0.7672536509
0.7023642389
0.7499475662
0.7417725111
0.7811547246
0.7534136549
0.7313089845
0.7693676006
0.7709860032
0.7297271145
0.9232083747
0.7424788536
0.7616071668
0.8885772826
0.7523371479
0.7475010927
0.9135449854
0.7303330058
0.6932590189
0.7601598404
0.8932549176
0.7548741759
0.9282579563
0.7604500225
0.7554130002
0.7795024972
0.9343397084
0.7023657602
0.7481447235
0.7429608864
0.9027955210
0.7724884767
0.7408283514
0.9079459253
0.7460976040
0.7423922379
0.7378992223
0.7672854967
0.7071657536
0.8971880421
0.6752618518
0.7572810277
0.7292094488
0.7693882777
0.7616585654
0.9323976422
0.7305885609
0.7780790010
0.7277071564
0.7507326251
0.7711459289
0.7272563731
0.9012116796
0.7310198795
0.7579814048
0.8807125848
0.9366418458
0.7310136482
0.7218629461
0.9343331975
0.9079361127
0.9433755258
0.9143147941
0.7549537101
0.7366550896
0.8971805149
0.9115884950
0.7511021562
0.7454199483
0.7603065610
0.9037025077
0.7335664369
0.9342775255
0.9089869256
0.6861028701
0.7433862143
0.8717133503
0.9401627095
0.7305538322
0.7451343103
0.9086252172
0.7355249636
0.7276854334
0.9379646481
0.7291886052
0.7345860560
0.7394474067
0.7781087792
0.7415290138
0.7351500574
0.7261435383
0.8615653048
0.9292006047
0.7255357833
0.8807215065
0.7574512056
0.9323798821
0.7291831611
0.6752858946
0.7309975051
0.7405375479
0.7282247387
0.7305616590
0.7277955538
0.9221021195
0.7426436141
0.9238397321
0.7265310838
0.9089720111
0.9115712228
0.7720029009
0.7317564395
0.7303608336
0.9081673876
0.7522775166
0.9404496452
0.9226217463
0.7510938179
0.8717238552
0.7455351241
0.9261498162
0.9177776958
0.7549578322
0.7305272886
0.8851272239
0.7255687611
0.9388148276
0.7366335597
0.9195234954
0.9184434994
0.7457465262
0.7291695897
0.9291743934
0.7173342251
0.7345629325
0.8866046736
0.8615715026
0.7395739650
0.9198724879
0.7415048802
0.7240572432
0.9183835808
0.7281960770
0.7252188162
0.7022559003
0.7251847655
0.8201469962
0.9195226969
0.7720161229
0.7711725097
0.9260827135
0.7303419577
0.7255423270
0.7617690119
0.9218721421
0.7317335503
0.7266132877
0.9160099929
0.7256980305
0.7268945087
0.9170014815
0.7606396564
0.6836496873
0.7610652189
0.9207126981
0.6929686084
0.7284877708
0.9187950141
0.9258048896
0.7857387690
0.7340384918
0.7174284124
0.9165146621
0.9251067887
0.8866043445
0.6710575884
0.7321020386
0.7260740379
0.9267093065
0.9218673827
0.9159971224
0.9237260963
0.7610467818
0.7617651284
0.9276138408
0.7815978260
0.7045593709
0.7268660001
0.7237719984
0.7023127556
0.9252291104
0.9258007978
0.7704794552
0.9316137728
0.6680800498
0.6731445934
0.7495866452
0.7284735204
0.9246921164
0.7320879711
0.7408591655
0.7394842982
0.6795605086
0.9269974796
0.7290534980
0.6698468541
0.9353708180
0.9441101388
0.9338691562
0.9409421426
0.6625258208
0.9257923608
0.6513667792
0.9256015130
0.8774338206
0.9353044427
0.9266912950
0.6616083853
0.9253163790
0.9275366022
0.7816273103
0.9284049580
0.9314179104
0.9440511874
0.9382686920
0.6476064382
0.9302093010
0.9363066904
0.6977189928
0.9252208347
0.9290569980
0.9275851738
0.7586084987
0.6439946701
0.6601371382
0.7408514982
0.7916524973
0.7794696886
0.7394700400
0.7676920207
0.6754974610
0.7782284119
0.7981653973
0.7883394029
0.7273856770
0.6518024664
0.7971243791
0.7461302225
0.7818437652
0.7018631839
0.7646006624
0.7950480235
0.7882127767
0.7494337210
0.6732946146
0.9393892726
0.9388601762
0.9274293093
0.8667572251
0.6529574627
0.9352913589
0.6513932139
0.9338495978
0.9305492306
0.6357064761
0.9424269548
0.9384057820
0.9255928139
0.9017872597
0.9384831111
0.9441089329
0.9318092325
0.7191536142
0.9430835192
0.9389563883
0.9275259420
0.9207265518
0.6940020810
0.9329255500
0.6569814443
0.6361534947
0.9405762755
0.9361375760
0.9383576939
0.9382626078
0.9418619499
0.9314064665
0.7841546181
0.7749985838
0.6312431206
0.6579559567
0.7131262112
0.7608849482
0.7130765972
0.7950956172
0.7795375812
0.7923718775
0.6629990776
0.7563257002
0.8009283807
0.7917578136
0.8048498747
0.8127577264
0.7585972028
0.7947139369
0.7557258936
0.7722073603
0.6360494155
0.6851861225
0.7389166866
0.7785419346
0.6872252188
0.7935804938
0.7883770093
0.7830232470
0.6440062389
0.7690453810
0.7998907588
0.8005418453
0.8050379013
0.7916170394
0.7368376075
0.9284350500
0.9392826600
0.9359080541
0.9305386104
0.9391309107
0.9420691162
0.6646508742
0.6259534153
0.9396109915
0.6357179816
0.9411483598
0.8529368152
0.6507586742
0.8920859420
0.9388559907
0.9369036654
0.9390520417
0.9361271930
0.9394129471
0.9430068738
0.7150528811
0.6311035740
0.9397446623
0.6435141500
0.9405737872
0.9061099891
0.6946805705
0.9320160594
0.9369036619
0.6442564449
0.7478610621
0.6993750797
0.7753569341
0.6468765379
0.8075649012
0.7835096831
0.7707230344
0.8006846361
0.8050837297
0.8086741030
0.8034019978
0.6258491520
0.8063915345
0.7521699503
0.6977043115
0.7887835807
0.7950590300
0.6701898106
0.7243498812
0.7273386920
0.7868608287
0.6312458673
0.8103969617
0.7677176250
0.7942828707
0.8028250144
0.8091696692
0.7971096078
0.6269211887
0.7727540476
0.6707070445
0.8003837938
0.8009738726
0.8186828810
0.6941554588
0.6253688407
0.7830043949
0.9346252454
0.9392826211
0.8169893522
0.8199979634
0.8354264652
0.6894625884
0.6561404780
0.8784256048
0.7790928162
0.8082483141
0.8218688592
0.9382328204
0.6607665578
0.6259713705
0.9321714298
0.9124349520
0.9402021660
0.6499839898
0.6491729588
0.7423718992
0.9371897527
0.7378300703
0.8065564414
0.9363618018
0.8165876045
0.6774396050
0.6354613144
0.7724669514
0.9395229202
0.9382821987
0.8140989549
0.8226667077
0.8857002587
0.7142799543
0.6989142752
0.9187363529
0.7897336155
0.8020332223
0.8191643724
0.9394041900
0.7140334893
0.6356501973
0.9351135700
0.9254174387
0.9397441380
0.6433905331
0.6561359466
0.7274372725
0.9403991834
0.7595865555
0.8148029215
0.9361340212
0.8342540227
0.8099880851
0.6293910624
0.7796560234
0.7631641905
0.8127622383
0.7441187764
0.8060075193
0.9023884937
0.8985831136
0.8774931967
0.8077044855
0.8866586921
0.8302605431
0.6387603841
0.8104395984
0.6354594231
0.7645667570
0.8027159061
0.7008628872
0.7918114362
0.7660442737
0.7847131923
0.7999158138
0.6835817975
0.7383375100
0.8838520761
0.6890147315
0.8772885839
0.8063308346
0.6275169667
0.7612508157
0.7271812092
0.8137117944
0.7666295875
0.8087181434
0.9074967292
0.9043406370
0.8841365923
0.8127780646
0.8829357601
0.7939663385
0.6610446759
0.8076790217
0.6258639079
0.8262188791
0.7934603957
0.7609647688
0.8003990695
0.7983545676
0.6566280478
0.7117880697
0.8580638633
0.7177218964
0.6566248178
0.8289138597
0.7885148175
0.8147639401
0.6602628229
0.6894735287
0.7282851114
0.7777708925
0.9216568830
0.8188585500
0.8102037126
0.8098830743
0.8188185128
0.6513583185
0.8609189246
0.7893455457
0.6714924399
0.6491727837
0.7018921152
0.6489707111
0.7061068754
0.9351105821
0.8109694145
0.8219157710
0.7503127802
0.8218056737
0.7893191319
0.8036247506
0.8150193753
0.9378434402
0.6367438991
0.8065779950
0.6646516951
0.6424133585
0.6496432527
0.8349482695
0.8291880530
0.7019079819
0.7744888271
0.8275270852
0.7791157688
0.8200325640
0.8363784475
0.9363660281
0.6253971596
0.7378517441
0.7516583006
0.8210709845
0.6701545284
0.8339189985
0.8011466528
0.8030534206
0.8161620580
0.6519110140
0.6636359659
0.7005561659
0.7960195190
0.9309540467
0.8170418537
0.8225996560
0.8137438443
0.6558385804
0.9016210171
0.7976088802
0.6980103607
0.6605613780
0.6605580386
0.7497202493
0.9351170807
0.8152946301
0.8225714921
0.7716140705
0.8156795543
0.7918008404
0.8109242812
0.9403930262
0.6494469625
0.7334920914
0.7947816409
0.7170531107
0.6489733821
0.8308475271
0.8263629125
0.7189229653
0.7560171516
0.8232621308
0.7596081803
0.8148304324
0.8392274666
0.9367481052
0.6369569688
0.7142941563
0.7645356393
0.9042733317
0.8034748468
0.8635702250
0.8524922104
0.8128197618
0.7922647912
0.8971436337
0.7749602076
0.8829398036
0.7567452413
0.7252931773
0.6736970280
0.7317207806
0.8585768638
0.9299096298
0.8985902013
0.9258736085
0.8126166398
0.8930676370
0.8424888384
0.8646796693
0.8022355426
0.8881936474
0.8405138236
0.8524560100
0.8342694080
0.8824280825
0.7307076106
0.7307185428
0.7231082484
0.6320355262
0.7296907460
0.8455803054
0.8321005004
0.7984430140
0.9345663544
0.9088126826
0.6341495380
0.6952444336
0.8932606591
0.8862093630
0.6465761555
0.8921448423
0.8352330316
0.9179629525
0.8095777741
0.8650817612
0.8495208512
0.8095219976
0.8959316537
0.7545183660
0.8841410132
0.7031994725
0.6488941410
0.7984523643
0.8533536114
0.9321583981
0.9043470498
0.9267138638
0.8128047752
0.8833985557
0.8807446570
0.8622742884
0.7907085564
0.8932672085
0.8526283179
0.8456562771
0.8559545461
0.8774916277
0.7939787645
0.8549753804
0.7847698577
0.6294083381
0.7019169944
0.8433437312
0.8838596100
0.9383851221
0.9075034181
0.8872823834
0.6341866801
0.7707271290
0.9027803667
0.8881884383
0.6755567803
0.8192488316
0.7925048032
0.9299177044
0.8425398380
0.6513581204
0.9345653190
0.8102231532
0.6575964962
0.6341968218
0.9288788323
0.6657651691
0.9519904749
0.9242870382
0.9615543568
0.8280729790
0.8122630728
0.7322156600
0.8908538880
0.6755920636
0.8600192354
0.7322294849
0.7274601954
0.7061129938
0.9085171479
0.8109387996
0.8141622240
0.6632090166
0.6433942092
0.8281100365
0.9086806451
0.8739887138
0.8289317596
0.8020685173
0.7056368713
0.8871228728
0.6566175057
0.9201692314
0.7777841130
0.7546228120
0.6732151485
0.7465685048
0.8192290583
0.6445725871
0.9077663899
0.8185351410
0.8387540929
0.6561357230
0.8055620306
0.8369833997
0.6855991847
0.8905782172
0.8055797280
0.8225376974
0.9042768335
0.8659657362
0.7751360114
0.9060648481
0.9258830984
0.8127978010
0.8659255312
0.9321633537
0.8807989720
0.6831389248
0.9383819124
0.7960359074
0.6732188118
0.7785752090
0.6465980883
0.8983487710
0.6914445311
0.9476031168
0.9286017344
0.9378668087
0.8485080810
0.8884662928
0.7231482765
0.9200904573
0.6820238171
0.7544469224
0.6611877794
0.9301522215
0.8176903278
0.8304543455
0.8275674563
0.9514083114
0.8925408748
0.8210837028
0.7660332543
0.8847006449
0.9205208856
0.7497312677
0.8369475040
0.6831357074
0.7112401618
0.6606739990
0.9106173122
0.8339388269
0.8365987659
0.7206502929
0.8970743629
0.8142145752
0.8364042518
0.9179662586
0.8208435113
0.7902653815
0.9150872075
0.9267207427
0.8011969510
0.7847852723