<VTKFile type="UnstructuredGrid" version="0.1">
	<UnstructuredGrid>
		<Piece NumberOfPoints="1862" NumberOfCells="3498">
			<CellData>
				<DataArray type="Int32" Name="type" NumberOfComponents="1" Format="ascii">
0
0
0
0
0
0
0
0
0
0
0
0
0
0
0
0
1
0
0
1
0
0
0
0
0
0
0
0
0
0
0
0
0
1
0
0
0
0
0
0
0
0
0
0
0
0
0
0
0
0
1
0
0
0
0
0
0
0
0
0
0
1
0
0
0
0
0
0
0
0
0
0
0
0
0
0
0
0
0
0
0
0
0
0
0
0
0
0
0
0
0
0
0
0
0
0
0
0
0
0
0
0
0
0
0
0
0
0
0
0
0
0
0
0
0
0
0
0
0
0
0
0
0
1
0
0
0
0
0
0
0
0
0
0
0
0
0
0
0
0
0
0
0
0
0
0
0
0
0
0
0
1
0
1
1
0
0
0
0
0
0
0
0
0
0
0
0
0
1
0
1
0
0
0
0
1
0
0
0
0
0
0
0
0
1
1
0
0
0
0
0
1
0
0
0
0
0
0
0
0
1
0
0
0
0
0
0
0
0
0
0
0
0
0
0
0
0
0
0
0
0
0
0
0
0
0
0
0
0
0
0
0
0
1
0
0
0
0
0
0
0
0
0
0
0
0
0
0
0
0
0
0
0
0
0
0
0
0
0
0
0
0
0
0
0
0
0
0
0
0
0
0
0
0
0
0
0
0
0
0
0
1
0
0
0
0
0
0
0
0
0
0
0
0
0
0
0
0
0
0
0
0
0
0
0
0
0
0
0
0
0
0
0
0
0
0
0
0
0
0
0
0
0
0
0
0
0
0
0
0
0
0
1
0
0
0
0
0
0
0
0
0
0
0
0
0
0
0
0
0
0
0
0
0
0
0
0
0
0
0
0
0
0
0
0
0
0
0
0
0
0
0
0
0
0
0
0
0
0
0
0
0
0
0
0
0
0
0
0
0
1
0
0
0
0
0
0
0
0
0
0
0
0
0
0
0
0
0
0
0
0
0
0
0
0
0
0
0
0
0
0
0
0
0
0
0
0
0
0
0
0
0
0
0
0
0
0
0
0
0
0
0
0
0
0
0
0
0
0
0
0
0
0
0
0
0
0
0
0
0
0
0
0
0
0
0
0
0
0
0
0
0
0
0
0
0
0
0
0
0
0
0
0
0
0
0
0
0
0
0
0
0
0
0
0
0
0
0
0
0
0
0
0
0
0
0
0
0
0
0
0
0
0
0
0
0
0
0
0
0
0
0
0
1
0
0
0
0
0
0
0
0
0
0
0
0
0
0
0
0
0
0
0
1
0
0
0
0
0
0
0
0
0
0
0
0
0
0
0
0
0
0
0
0
0
0
0
0
0
0
0
0
0
0
0
0
0
0
0
0
0
0
0
0
0
0
0
0
0
0
0
0
0
0
0
0
0
1
0
0
0
0
0
0
0
0
0
0
0
0
0
0
0
0
0
0
0
0
0
0
0
1
0
0
0
0
0
0
0
0
0
0
0
0
0
0
0
0
0
0
0
1
0
0
0
1
0
0
0
0
0
0
0
0
0
0
0
0
0
0
0
0
0
0
0
0
0
0
0
0
0
1
0
0
0
0
0
0
0
1
0
0
0
0
0
0
0
0
0
0
0
0
0
0
0
0
0
0
0
0
0
0
0
0
0
0
1
0
0
0
0
0
0
0
1
0
0
0
0
0
0
1
0
0
0
0
0
0
0
0
0
0
0
0
0
0
0
0
0
0
0
0
0
0
0
0
0
0
0
0
0
0
0
0
0
0
0
0
0
0
1
0
0
0
0
0
1
0
0
0
0
0
0
0
1
0
0
0
0
0
0
0
0
0
0
0
0
0
1
0
0
0
0
0
0
0
0
0
0
0
0
0
0
0
0
0
0
0
0
0
0
0
0
0
0
0
0
0
0
0
0
0
0
0
0
0
0
0
0
0
0
0
0
0
0
0
0
0
0
0
0
0
1
0
0
0
0
0
0
0
0
0
0
0
0
0
0
0
0
0
0
0
1
0
0
0
0
0
0
0
0
0
1
0
0
0
0
0
0
0
0
0
0
0
0
0
0
0
0
0
0
0
0
0
0
0
0
0
0
0
0
0
1
0
1
0
0
0
0
0
0
0
0
0
0
0
0
0
0
0
0
0
0
0
0
0
0
0
0
0
0
0
1
0
0
0
1
0
0
0
0
0
0
0
0
0
0
0
0
0
0
0
0
0
0
0
0
0
0
0
0
0
0
0
0
1
0
0
0
0
0
0
0
0
0
0
0
0
0
0
0
0
0
0
0
0
0
0
0
0
0
1
0
0
0
0
0
0
0
0
0
0
0
0
0
0
0
0
0
0
0
0
0
0
0
1
0
0
0
0
0
0
1
0
0
0
0
0
0
0
0
0
0
0
1
0
0
0
0
0
0
0
0
0
0
0
0
0
0
0
0
0
0
0
0
1
0
0
0
0
0
0
0
0
0
0
0
1
0
0
0
0
0
0
0
0
0
0
0
0
0
0
0
0
0
0
0
0
0
1
0
0
0
0
0
0
0
0
0
1
1
0
1
0
1
0
0
0
0
0
0
0
0
0
0
0
1
0
0
0
0
0
1
1
0
0
0
0
0
0
1
0
0
0
0
0
1
1
1
0
0
0
0
0
0
0
0
0
0
0
0
1
1
0
0
1
0
0
0
0
0
1
0
0
0
1
0
1
0
0
0
0
0
0
0
1
0
0
0
0
0
0
0
1
0
0
1
0
0
0
0
0
0
0
0
0
0
0
0
0
0
0
1
0
0
0
0
0
0
0
0
0
0
0
0
0
0
0
0
0
0
0
0
0
0
0
0
0
0
0
0
0
0
0
0
0
0
0
0
1
0
0
0
0
0
0
1
0
0
0
1
0
0
0
0
0
0
0
0
0
0
0
1
0
0
0
0
0
0
0
0
0
0
0
0
0
0
0
0
0
0
0
0
0
0
0
0
0
0
0
0
0
0
0
0
0
0
0
0
0
0
0
0
1
1
0
0
0
0
0
0
0
0
0
0
0
0
0
1
0
0
0
0
0
0
0
0
0
0
0
0
0
0
0
0
0
0
0
0
0
0
0
0
0
0
0
0
0
0
0
0
0
0
0
0
0
0
0
0
0
0
0
0
0
0
0
0
0
0
0
0
0
0
0
0
0
0
0
0
0
0
0
0
0
0
0
0
0
0
0
0
1
1
0
0
0
0
0
0
0
0
1
0
0
0
0
0
0
0
0
0
0
0
0
0
0
0
0
0
0
0
0
0
0
0
1
0
0
0
0
0
0
0
0
0
0
0
0
0
0
0
0
1
0
0
0
0
0
0
0
0
0
0
0
0
0
0
0
0
0
0
0
0
0
0
0
0
0
0
0
0
0
0
0
0
0
0
0
0
0
0
0
0
0
0
0
0
0
0
0
0
0
0
0
0
0
0
0
0
0
0
0
0
0
0
0
0
0
0
0
0
0
0
0
0
0
0
0
0
0
0
0
0
0
0
0
0
0
0
0
0
0
0
1
1
0
0
0
0
0
1
0
0
0
0
0
0
0
0
0
0
0
0
1
0
0
0
0
0
0
0
0
0
0
0
0
0
0
0
0
0
0
0
0
0
0
0
0
0
0
0
0
0
0
0
0
0
0
0
0
0
0
0
0
0
0
0
0
0
0
0
0
0
0
0
0
0
1
0
1
0
0
0
0
0
0
0
0
0
0
0
0
0
0
0
0
0
0
1
0
0
0
0
0
0
0
0
0
0
0
0
0
0
0
0
0
0
0
0
0
0
0
0
0
0
0
0
0
0
0
0
0
0
0
0
0
0
0
0
0
0
0
0
0
0
0
0
0
0
0
0
0
0
0
0
0
0
0
0
0
0
0
0
0
0
0
0
0
0
1
0
0
0
0
0
0
0
0
0
0
1
0
0
0
0
0
0
0
0
0
0
0
0
0
0
0
0
0
0
0
0
0
0
0
0
0
0
0
0
0
0
0
0
0
0
0
0
0
1
0
0
0
0
0
0
0
0
0
0
0
0
0
0
0
0
0
0
0
0
0
0
0
0
0
0
0
0
0
0
0
0
0
0
0
0
0
0
0
0
0
0
0
0
0
0
0
0
0
0
0
0
0
0
0
0
0
0
0
0
0
0
0
0
0
0
0
0
0
0
0
0
0
0
0
0
0
0
0
0
0
1
0
0
0
0
0
0
0
0
0
0
0
0
0
0
0
0
0
0
0
0
0
0
0
0
0
0
0
0
0
0
0
0
0
0
0
0
0
0
0
0
0
0
0
0
0
0
0
0
0
0
0
0
0
0
0
0
0
0
0
0
0
0
0
0
0
0
0
0
0
0
0
0
0
0
0
0
0
0
0
0
0
0
0
0
0
0
0
0
0
0
0
0
0
0
0
0
0
0
0
0
0
0
0
0
0
0
0
0
0
0
0
0
0
0
0
0
0
0
0
0
0
0
0
1
0
0
0
0
0
0
0
0
0
0
0
0
0
0
0
0
0
0
0
0
0
0
0
0
0
0
0
0
0
0
0
0
0
0
0
0
0
0
0
0
0
0
0
0
0
0
0
0
0
0
0
0
0
0
0
0
0
0
0
0
0
0
0
0
0
0
0
0
0
0
0
0
0
0
0
0
0
0
0
0
0
1
0
0
0
0
0
0
0
1
0
0
0
0
0
0
0
0
0
0
0
0
0
0
0
0
0
0
0
0
0
0
0
0
0
0
0
0
0
0
0
0
0
0
0
0
0
1
0
0
0
0
0
0
0
0
0
0
0
0
0
0
0
0
0
0
0
0
0
1
0
0
0
0
0
0
0
0
0
0
0
0
1
1
0
0
0
0
0
0
0
0
0
0
0
0
0
0
0
1
1
0
1
0
0
0
0
0
0
0
0
0
1
0
0
0
0
0
0
1
0
0
0
0
0
0
0
0
0
0
1
0
0
0
0
1
0
1
0
0
0
0
0
0
0
1
0
0
0
1
0
0
0
1
0
1
1
0
0
1
1
0
0
0
1
0
0
0
1
0
0
0
0
0
0
0
0
0
1
0
0
0
0
0
0
1
0
0
0
0
0
0
0
0
0
0
0
0
0
0
0
0
0
0
0
0
0
0
0
0
0
0
0
1
0
0
1
0
0
0
0
0
0
0
0
0
0
0
0
0
0
0
0
0
0
1
0
0
1
0
0
0
0
0
0
0
0
0
0
0
1
0
0
1
0
0
0
0
0
0
0
0
0
0
0
1
1
0
0
0
0
0
0
0
0
0
0
0
0
1
0
0
0
0
0
0
0
0
0
0
0
0
0
0
0
0
0
1
0
0
0
0
0
0
0
0
0
0
0
0
0
0
0
0
0
1
0
0
0
0
0
0
0
0
0
0
0
0
0
0
0
0
0
0
0
0
0
0
0
0
0
0
0
0
0
0
0
0
0
0
0
0
0
0
0
0
1
0
0
0
0
0
0
0
0
0
0
0
0
0
0
0
0
0
0
0
0
0
0
0
0
0
0
0
0
0
0
0
0
0
0
0
0
0
0
0
0
0
0
0
0
0
1
0
0
0
0
0
0
0
0
0
0
0
0
0
0
0
0
0
0
0
0
0
0
0
0
0
0
0
0
0
0
0
0
0
0
0
0
0
0
0
0
0
0
0
0
0
0
0
1
0
0
0
0
0
0
0
0
0
0
1
0
0
0
0
0
0
0
0
0
0
0
0
0
0
0
1
0
0
1
0
0
0
0
0
0
0
0
0
0
0
0
0
0
0
0
0
0
0
0
0
0
0
1
0
0
0
0
0
0
0
0
0
0
0
0
0
0
0
0
0
0
0
0
0
0
0
0
0
0
0
0
0
0
0
0
0
0
0
1
0
0
0
0
0
0
0
0
0
0
0
0
0
0
0
0
0
0
0
0
0
0
0
0
0
0
0
0
0
0
0
0
0
0
0
0
0
0
0
0
0
0
0
0
0
0
0
0
0
0
0
0
0
0
0
0
0
0
0
0
0
0
0
0
0
0
0
0
0
0
0
0
0
0
0
0
1
0
0
0
0
0
0
0
0
0
0
0
0
0
0
0
0
0
0
0
0
0
0
0
0
0
0
0
0
0
0
0
0
0
0
0
0
0
0
0
1
0
0
0
0
0
0
0
0
0
0
0
0
1
1
0
0
0
0
0
0
0
0
0
0
0
0
0
0
0
0
0
0
0
0
0
0
0
0
0
0
0
0
0
0
0
0
0
0
0
0
0
0
0
0
0
0
0
0
0
0
0
0
0
0
0
0
0
0
0
0
0
0
0
0
0
0
0
0
0
0
0
0
0
0
0
0
0
0
0
0
0
0
0
0
0
0
0
0
0
0
0
0
0
0
0
0
0
0
0
0
0
0
0
0
0
1
0
1
0
0
0
0
0
0
0
1
1
1
1
0
0
0
0
0
0
0
0
0
0
0
0
0
0
0
0
0
0
0
0
0
0
0
0
0
0
0
0
1
1
0
0
0
0
0
0
0
0
0
0
0
0
0
0
0
0
0
0
1
0
0
0
0
0
0
0
1
1
0
1
1
0
0
1
0
0
0
0
0
0
0
1
0
1
0
0
0
0
0
0
0
0
0
0
0
0
0
0
0
0
0
0
0
0
0
0
0
0
0
0
0
1
1
0
0
0
1
1
0
0
0
0
1
0
0
1
0
1
0
0
0
0
0
1
0
0
0
1
0
0
0
0
0
0
0
0
0
0
0
0
0
0
0
0
0
0
0
0
0
0
0
0
0
0
0
1
0
0
0
0
0
0
1
0
0
0
0
0
0
0
0
0
0
0
0
0
0
0
0
0
0
0
0
0
0
0
0
0
0
0
0
0
1
0
1
0
0
0
0
0
0
0
1
0
0
0
0
0
0
0
0
0
0
0
1
0
0
0
0
0
0
0
0
0
1
0
0
0
0
0
0
0
1
0
0
0
0
0
0
0
1
0
0
0
0
0
0
0
0
0
0
0
0
0
0
0
0
0
0
0
1
0
1
0
0
0
0
0
1
0
0
0
0
0
0
0
0
0
0
0
0
0
0
0
0
0
0
0
0
0
0
0
0
0
1
0
1
0
0
0
0
0
0
0
0
0
1
0
0
0
0
0
1
0
0
0
0
0
0
0
0
0
0
0
0
0
0
0
1
0
0
0
0
0
0
0
0
1
0
0
0
0
0
0
0
0
0
0
0
0
0
0
0
0
0
0
0
0
0
0
0
0
0
0
0
0
0
0
1
0
0
0
0
0
0
0
0
0
0
0
0
0
0
0
0
1
0
0
0
0
0
0
0
0
1
0
0
0
0
0
0
0
0
0
1
0
0
0
0
0
1
0
0
0
0
0
0
0
0
0
0
0
0
0
0
0
0
0
0
0
1
0
0
0
0
0
0
1
0
0
0
0
0
0
0
0
1
0
0
0
0
0
0
0
0
0
0
0
0
0
0
1
0
0
1
0
0
0
1
0
0
0
0
0
0
0
0
0
0
0
0
0
0
0
0
1
0
0
0
0
0
0
0
0
0
0
1
0
1
0
0
0
0
0
0
1
0
0
0
0
0
0
0
0
0
0
0
0
0
0
0
0
0
0
0
0
0
0
0
0
0
0
0
1
1
0
0
0
0
0
0
1
0
0
0
0
0
0
0
0
0
0
0
0
0
1
0
0
0
0
0
0
0
1
0
0
0
0
0
0
0
0
0
0
0
0
0
0
0
0
0
0
0
0
0
0
0
0
0
0
0
1
0
0
0
0
0
0
0
0
0
0
1
0
0
1
0
0
0
0
0
0
0
0
0
0
0
0
0
0
0
0
0
0
0
0
0
0
0
0
0
0
0
0
0
1
0
0
0
0
0
0
0
1
0
0
0
0
0
0
0
1
0
0
0
0
1
0
0
0
0
0
0
0
0
0
0
0
1
0
1
0
0
0
1
0
				</DataArray>
				<DataArray type="Float64" Name="h" NumberOfComponents="1" Format="ascii">
0.8494986962
0.8495718438
0.8354216077
0.8400311832
0.8371898494
0.8389539885
0.8385811058
0.8477624323
0.8421539626
0.8613238735
0.8422245172
0.8371394319
0.8586201534
0.8472072380
0.8516283381
0.8811949584
0.8355360557
0.8648485877
0.8523070583
0.8406933194
0.8340587315
0.8630690327
0.8451469270
0.8380458146
0.8382016317
0.8954144519
0.8565065309
0.8295293669
0.8398121111
0.8504021257
0.8444761979
0.8434651111
0.8682112428
0.8351593618
0.8437950355
0.8378524990
0.8352934142
0.8453590106
0.8260996653
0.8356755306
0.8387342047
0.8351940521
0.8533394763
0.8389681446
0.8372923186
0.8333207352
0.8440294428
0.8457834188
0.8590149434
0.8471829678
0.8380044350
0.8368356930
0.8386005464
0.8380596532
0.8384045081
0.8543063722
0.8347231240
0.8513729838
0.8532516321
0.8441782448
0.8637670871
0.8614457422
0.8617422830
0.8372531351
0.8359800722
0.8239561651
0.8336354258
0.8505106611
0.8584880810
0.8555190977
0.8525604628
0.8405291697
0.8449774408
0.8436029510
0.8496459469
0.8092523360
0.8527392242
0.8591806052
0.8492082462
0.8172013555
0.8695001952
0.8251483423
0.8740765929
0.8371805446
0.8216398489
0.8082211776
0.8710442781
0.8216707813
0.8569144851
0.8683728724
0.8704784236
0.8119385743
0.8633296832
0.8586530710
0.8132797445
0.8132524079
0.8090575532
0.8219023588
0.8209878481
0.8706926118
0.8709279785
0.8698913978
0.8228209444
0.8477904178
0.8854190511
0.8201506826
0.7996192184
0.8654772532
0.8592409978
0.8192063704
0.8512829574
0.8628378263
0.8649264402
0.8670816559
0.8345531250
0.8790590672
0.8287782544
0.8702362572
0.8724408280
0.8466989246
0.8788838005
0.8156912611
0.7975167114
0.8794735370
0.8610806953
0.8684192620
0.8400438595
0.8914202675
0.8795876622
0.8774860935
0.8757859569
0.8062975030
0.8512485823
0.8823035805
0.8636604906
0.8746892267
0.9143767304
0.8812196258
0.8759731474
0.8853162395
0.9049722739
0.8690964567
0.8765757586
0.8714067307
0.8017326198
0.8752157191
0.9002691688
0.8786381928
0.8810850000
0.8780445702
0.9235112469
0.8825904647
0.8811646918
0.8801759350
0.8745746345
0.8799565091
0.8815209112
0.9000087870
0.8790882707
0.9213861137
0.8832312215
0.8805011590
0.9128829308
0.9133126989
0.8973443343
0.8771040164
0.8579872782
0.8985715192
0.8969863739
0.8782658377
0.8821577137
0.9126658941
0.8798714658
0.9093664850
0.8549453612
0.8768453218
0.8690463780
0.8763076224
0.8780381352
0.9202489951
0.8791258423
0.8402093781
0.9276384115
0.7911322530
0.9173016301
0.9240183076
0.8446000393
0.8777417719
0.9042222398
0.9256942696
0.8251514837
0.8789032454
0.9301288281
0.8304598522
0.8767027977
0.8771655259
0.9322167179
0.8101078919
0.8160579148
0.8743017693
0.9271521622
0.7876577525
0.9246041858
0.8774324488
0.7957441933
0.9485601223
0.9056155360
0.9336458678
0.8018096281
0.8744503353
0.8277378675
0.9251613084
0.9411381028
0.9512283458
0.9207520820
0.8117690203
0.8896679140
0.9474096165
0.8437650112
0.9387608713
0.7889692103
0.8555508759
0.8594344317
0.8258682112
0.7816926670
0.8755151532
0.8726293605
0.7973938654
0.7834907108
0.8661361648
0.8764653903
0.8416018921
0.7870554453
0.8743037858
0.8760636831
0.8102223772
0.8215751207
0.9102591803
0.9411818539
0.8770893912
0.8265570152
0.9415433418
0.9590418143
0.8713350561
0.9330581889
0.9030158101
0.9532673748
0.8381811913
0.9269867565
0.9573273379
0.8935010984
0.8435851167
0.9515912914
0.8055639547
0.8102063512
0.9610025534
0.8869663602
0.9191119984
0.9512142384
0.8344921655
0.8605138325
0.7750161629
0.7846106267
0.8134344096
0.7806502884
0.8748609143
0.8743842079
0.7841222974
0.8729459942
0.8466200625
0.8687374084
0.8547105315
0.8623154420
0.8016571217
0.8177980727
0.7800793302
0.7765308606
0.7973664731
0.8305709045
0.7788813429
0.8703595356
0.8730748003
0.8742289037
0.8746682937
0.8598606576
0.8499668920
0.7890122994
0.9142790043
0.9631273318
0.9674921904
0.9070270952
0.8208009601
0.9475999035
0.9401512502
0.8796028218
0.8280370355
0.8723811186
0.9317998277
0.9653885241
0.9609857315
0.9697814672
0.9241706962
0.8378432058
0.8123032800
0.8050950674
0.8967687854
0.8450068732
0.8894069247
0.9606563145
0.7741536467
0.7887721405
0.7762539460
0.8714079022
0.7845024774
0.8637245434
0.8222224731
0.8623659625
0.8546652172
0.8728280215
0.8552246035
0.8019899115
0.7730498032
0.8370497489
0.8729727581
0.7716614051
0.7779400629
0.7868440228
0.8726172901
0.8046197277
0.8396671155
0.8653927645
0.8727964590
0.8713205535
0.7830099434
0.8195235500
0.7752748150
0.8523325649
0.9094303910
0.8670443687
0.8822045770
0.8321924981
0.8742376541
0.9712180563
0.8230513134
0.9516266327
0.9171603346
0.9450240956
0.9749734827
0.8532006938
0.8015991540
0.8178948356
0.8004601313
0.9274825201
0.9674852390
0.8624036182
0.8994965314
0.8076646399
0.8481450580
0.8917065343
0.8184367654
0.8260352892
0.8595933493
0.9697868427
0.8393985407
0.8090128258
0.9350720440
0.8305251642
0.8212187371
0.7897657436
0.9774315175
0.8027183880
0.8387834495
0.9723436637
0.8711740610
0.8106894415
0.7938082920
0.8706049578
0.9839786134
0.8578446121
0.7792980297
0.7899190837
0.8458464205
0.8692460890
0.8650518329
0.8279143442
0.8567412950
0.7716230929
0.7804448186
0.7738214228
0.9075695524
0.8696254729
0.7915579262
0.7936939828
0.8678134840
0.8704634321
0.8101773962
0.9842891922
0.9462624257
0.9325297060
0.8797590346
0.7732434051
0.8591872225
0.8878128684
0.8289035448
0.8731457247
0.8706525585
0.8444821909
0.7775564786
0.7724206620
0.8970602744
0.7810889017
0.8150569520
0.8133071056
0.8179329779
0.9116885090
0.8615383608
0.8454663393
0.8766888357
0.8124250609
0.7871472244
0.8451805251
0.8474390014
0.9474281951
0.8406237354
0.8623219725
0.7870791952
0.8660732140
0.9772116987
0.8273453858
0.8285891564
0.7928906877
0.8644665764
0.8075388975
0.8506625307
0.8026405158
0.7925211785
0.8490935010
0.8298039063
0.8646702282
0.8570268505
0.8326037958
0.8291972133
0.9298283027
0.8339187375
0.8480996957
0.8939984599
0.7806697133
0.8364054812
0.7981734132
0.8328288429
0.8184278630
0.8639505044
0.9774195702
0.7985223590
0.8432458288
0.8474424066
0.8612102280
0.8507040134
0.8170038130
0.8621930282
0.9724903271
0.8168807829
0.9135302382
0.8671072977
0.8596552482
0.8020827714
0.7807354921
0.7765513061
0.8812163554
0.9487254373
0.8677884397
0.8799743027
0.8370115142
0.8495637485
0.8012962994
0.7773003798
0.8686706418
0.9055317782
0.9815243945
0.9809686168
0.9722482944
0.8276399644
0.9312394643
0.8684797576
0.8705174638
0.8639730404
0.8522040977
0.9599469979
0.7873573576
0.9446372628
0.8525465722
0.7862122756
0.8734838275
0.9754164987
0.9842690025
0.9193210154
0.8964197661
0.8766789834
0.8195631193
0.9680951030
0.8554111049
0.8535936800
0.9151543377
0.9325260557
0.8797575759
0.8640578891
0.7733704609
0.9830836845
0.8220944366
0.8522646334
0.9599580483
0.8369891444
0.8422350035
0.8799701270
0.8650683283
0.9815022574
0.8311762207
0.8442633910
0.9836533689
0.8891356992
0.8369958156
0.8233921365
0.8444296496
0.8638533410
0.9210508828
0.8421254272
0.9703292858
0.8314753061
0.8699209290
0.8479585753
0.8245123362
0.9135291272
0.8156899830
0.9545273522
0.9487139769
0.8977574308
0.9753934237
0.8964179076
0.9830631596
0.8699177795
0.8276549159
0.9051828965
0.9349158669
0.9854438174
0.9196722959
0.9046547152
0.9793301600
0.8495592075
0.9126357033
0.9435549928
0.8652956843
0.9270149408
0.9380352530
0.8826313453
0.9789605729
0.8752273242
0.8391930409
0.9526763733
0.8421277731
0.8585177147
0.8596226538
0.9624551448
0.8507121546
0.9312354441
0.8901537911
0.8298643763
0.8640509505
0.7807435673
0.8504371452
0.8640077857
0.8732530281
0.8462112427
0.8481699528
0.8426174054
0.7871548453
0.9848270238
0.8156336411
0.8604992999
0.8422368496
0.8687047329
0.9077049403
0.7981825768
0.8554143683
0.9603868499
0.8566063423
0.9539306640
0.8647035281
0.8133721615
0.7806703750
0.9460012159
0.8661265051
0.9057794972
0.9259023078
0.8934936689
0.9441391566
0.7985356657
0.8595149752
0.9879423569
0.8746524119
0.8967977858
0.8752192073
0.8800196697
0.8675776411
0.9225401371
0.7871172381
0.9393800399
0.9220436082
0.8676716142
0.8455098301
0.9416865319
0.9293257718
0.9681110516
0.8629176827
0.9463411984
0.8604971987
0.9382333895
0.8544602976
0.9545173183
0.8732412656
0.8479603081
0.9210484534
0.8638349375
0.8677796360
0.9789296829
0.9836324739
0.8930091017
0.9368658883
0.8890035581
0.9789399015
0.9444259132
0.9220457490
0.9415483486
0.9424810416
0.8392015418
0.8891269143
0.8596143451
0.9380311787
0.8753462014
0.8925161724
0.8630587145
0.8542974640
0.9854234159
0.9312207437
0.9134515992
0.8687621815
0.8728095781
0.8575737631
0.8826287309
0.9350370588
0.8713573781
0.9300759977
0.9029622443
0.9828870765
0.9477612579
0.9215488830
0.8784311948
0.8609447766
0.9046500649
0.8673810818
0.9170652774
0.9879306408
0.9625299064
0.8575368875
0.8828188223
0.8937855492
0.8602790524
0.9303992889
0.8898382181
0.9756533154
0.9321098489
0.8866337177
0.8914549649
0.8977576706
0.9380808773
0.9107786311
0.9440037660
0.8793158768
0.9435162343
0.9451390541
0.9116328292
0.9066462730
0.9126185833
0.9257015593
0.8885008425
0.9358424474
0.9414904871
0.9380811506
0.8999891830
0.9076105636
0.9069587609
0.9406744673
0.9450725963
0.9337318908
0.9412138522
0.9438383389
0.8976054892
0.9081050953
0.8699869483
0.8845154902
0.9204696377
0.9157029568
0.9193976120
0.9367129924
0.8925060801
0.8816126156
0.9416753822
0.9224626052
0.9270167935
0.9033169050
0.9539828282
0.9465297571
0.9226145981
0.9463313577
0.9152768576
0.9020246569
0.9624427067
0.8934234260
0.9634384290
0.9609104566
0.8873203080
0.8836328339
0.9826388255
0.8436949508
0.8415813716
0.8416351309
0.8437539010
0.8389450192
0.8371113342
0.8421832998
0.8456336817
0.8394575335
0.8389239741
0.8372208715
0.8394902369
0.8421924985
0.8515722021
0.8385393017
0.8546646240
0.8456823272
0.8389810192
0.8591870647
0.8648020986
0.8400735638
0.8354506307
0.8522220065
0.8503633564
0.8736551082
0.8347169496
0.8478151649
0.8953943917
0.8381638743
0.8613694287
0.8642789141
0.8586982592
0.8373580908
0.8789890405
0.8513183681
0.8547074739
0.8444427969
0.8592545416
0.8351316542
0.8681122466
0.8433901746
0.8662844945
0.8356505078
0.8280916332
0.8355663360
0.8812602199
0.8532272126
0.8260467636
0.8347436305
0.8737059286
0.8386948102
0.8472454169
0.8407290433
0.8373842050
0.8452327449
0.8455631814
0.8631623747
0.8394880381
0.8643709287
0.8340833107
0.8514187628
0.8546680925
0.8288300193
0.8457600822
0.8790579268
0.8372667199
0.8379751340
0.8439310513
0.8295653817
0.8380711175
0.8398530324
0.8346834474
0.8331088248
0.8566233381
0.8377480634
0.8742641639
0.8281599142
0.8375323603
0.8410828875
0.8663807110
0.8385423714
0.8455835242
0.8546425630
0.8550977685
0.8547829835
0.8395133427
0.8401124521
0.8288465158
0.8378794210
0.8359073385
0.8454703490
0.8421334155
0.8438205475
0.8617489121
0.8504649739
0.8321441953
0.8353189744
0.8372288407
0.8375440376
0.8488105706
0.8478095222
0.8390300866
0.8436057779
0.8414948549
0.8405111666
0.8448646412
0.8570801805
0.8335218955
0.8351395375
0.8377705425
0.8631077719
0.8411106756
0.8352163568
0.8527185416
0.8525438340
0.8469551086
0.8496316900
0.8331944448
0.8432159313
0.8584723514
0.8420605428
0.8743114390
0.8554985008
0.8401353916
0.8421540882
0.8193213348
0.8321584518
0.8433598278
0.8428132061
0.8414734422
0.8590120809
0.8368663405
0.8551126921
0.8333623524
0.8251469516
0.8371409900
0.8341622315
0.8546693973
0.8472218366
0.8637756889
0.8614595711
0.8433237728
0.8653211378
0.8469485478
0.8532714412
0.8463046008
0.8414991373
0.8160573238
0.8420481510
0.8488313229
0.8420908208
0.8399847441
0.8384238272
0.8590701032
0.8570961920
0.8631217089
0.8544137556
0.8299100877
0.8509437782
0.8336126406
0.8380416620
0.8478274754
0.8441887094
0.8118794470
0.8513944976
0.8352263866
0.8633259059
0.8433953958
0.8477638051
0.8209427894
0.8341652351
0.8289433922
0.8428273073
0.8698907081
0.8278484336
0.8670357285
0.8305093916
0.8239799810
0.8709684495
0.8336593231
0.8463524381
0.8218293866
0.8683590533
0.8132188313
0.8375353238
0.8415300938
0.8707011270
0.8201168947
0.8193587568
0.8754243282
0.8299050189
0.8592252344
0.8628488660
0.8653292398
0.8509596157
0.8649166651
0.8399981187
0.8093184611
0.8455513892
0.8463220411
0.8591942998
0.8421483215
0.8704676078
0.8161166066
0.8512451504
0.8192077913
0.8590844222
0.8670413782
0.8753784109
0.8337490589
0.8683618117
0.8082825956
0.8156885918
0.8538201831
0.8463791967
0.8871154193
0.8375441714
0.8305274880
0.8217128312
0.8172712727
0.8710381416
0.8740231894
0.8694961087
0.8287895497
0.8492300538
0.8278956296
0.8788704410
0.8217047922
0.8290223067
0.8704572957
0.8062656226
0.8374171861
0.8980562052
0.8684464504
0.8624191347
0.8682700592
0.8569182311
0.8133094823
0.8586686370
0.8757673876
0.8683359433
0.8704716902
0.8705966645
0.8535042508
0.8610727803
0.8400400227
0.8456305242
0.8775124978
0.8228190419
0.8744711966
0.8307664997
0.8337283984
0.8871271969
0.8538104896
0.8646439412
0.8636353175
0.8747085300
0.8512605992
0.8854300717
0.8091031064
0.8016725358
0.8229569634
0.8690779698
0.8578341999
0.8980534910
0.8757400481
0.8670746725
0.8654534088
0.8998450259
0.8535247003
0.8682678013
0.8345707197
0.8810781964
0.8374863750
0.8766023206
0.8866612700
0.8790265534
0.8624287616
0.8752391799
0.8705783315
0.7996827413
0.8736763801
0.8030657117
0.8154232943
0.8824913079
0.8744446461
0.8646366869
0.9230283973
0.8806489052
0.8728113899
0.8754589716
0.8467135261
0.8308856691
0.8826172980
0.8702596994
0.8763188771
0.8724229928
0.8582150037
0.9235660190
0.8811917056
0.8745856829
0.8998481604
0.8866694559
0.8985508037
0.8973549618
0.8578423129
0.8791549283
0.8736889130
0.8985458747
0.8777919092
0.8111958604
0.8230369793
0.8794859941
0.8795620502
0.8831713354
0.8863893327
0.7975876301
0.8757646858
0.8544647570
0.9129001360
0.8789211598
0.8805242381
0.8914216254
0.8791073850
0.8754410632
0.9143539823
0.8822753732
0.8808808844
0.8043348543
0.8727743647
0.8803565900
0.8811894367
0.8798941029
0.8497521592
0.9118492184
0.8759585418
0.8582417435
0.8155492346
0.9229721468
0.8824640315
0.8031283714
0.8762982235
0.8782908744
0.8801533346
0.8806208548
0.8821822005
0.9093906059
0.8780270917
0.9276491117
0.8021923750
0.8863917660
0.8985400162
0.8765699798
0.8808598742
0.8792664226
0.8715052322
0.8786154987
0.9002906236
0.9202706128
0.8777763845
0.8544915631
0.8112719658
0.9310090993
0.9049598321
0.8791562537
0.8788955617
0.8689490512
0.8793444481
0.8853791268
0.8791314354
0.9149188024
0.9042232885
0.8799244233
0.8814979615
0.9118108463
0.7930396633
0.8808559367
0.8627454500
0.8497780850
0.8044240730
0.9172996928
0.8803224675
0.8801508562
0.8999901051
0.8801299430
0.8445155386
0.7930139844
0.8767227456
0.8580867330
0.9149075057
0.8765342499
0.8771957608
0.9309925937
0.8792467880
0.8793234919
0.8778933402
0.9197641092
0.8808354748
0.8022622118
0.9073456887
0.8789210308
0.8818792430
0.9132920850
0.8770715840
0.8303947511
0.8771438658
0.9213771867
0.7875783394
0.8764203198
0.9126650942
0.9246078386
0.8550281603
0.8774471669
0.7931165984
0.8969918842
0.9271533874
0.8627637360
0.8160063531
0.8755882191
0.8780201936
0.9218375338
0.9197588754
0.9073392930
0.9251654824
0.8771297932
0.8778668483
0.9371198026
0.8763118007
0.8402809522
0.8818532210
0.8768256165
0.7930887737
0.9321987221
0.9305120964
0.8762892977
0.9411621272
0.8017550570
0.8252036212
0.8764730828
0.8764019292
0.9256922100
0.8755693232
0.8764993436
0.8754585580
0.7912058829
0.9240152676
0.8777244923
0.7889174684
0.9532866718
0.9030013305
0.9340419903
0.9331005279
0.8101523771
0.9305097997
0.7967746526
0.9332043542
0.8712888867
0.9431501683
0.9218048594
0.8215452488
0.9301235855
0.9373832496
0.8762737718
0.9321797920
0.9466837297
0.9191278824
0.9443078969
0.8055349700
0.8868956790
0.9516197524
0.8381400819
0.9321960512
0.9411872544
0.9371013157
0.8757654800
0.7911913886
0.7957871482
0.8764869875
0.8498859855
0.8546594041
0.8754434077
0.8176022579
0.7788236975
0.8742386827
0.8704024015
0.8755629898
0.7889007053
0.7840857948
0.8623177737
0.8742905269
0.8343343307
0.7805716916
0.8729604477
0.8741897796
0.8748799849
0.8014887554
0.8277783477
0.9070137311
0.9522905852
0.9387514770
0.8723631063
0.8207814197
0.9431070281
0.7968093546
0.9339982668
0.9429710060
0.7956786111
0.9401838646
0.9631532044
0.9331971157
0.8745303712
0.9336015506
0.9056274790
0.9485444962
0.8438183559
0.9241874909
0.9606870922
0.9373788847
0.8893783969
0.8378241648
0.9473831608
0.8118073208
0.8050681959
0.9526895383
0.9566416280
0.8897307490
0.9442616698
0.9207371090
0.9466735819
0.8416981387
0.8551989311
0.7919543528
0.7752423765
0.7778553835
0.8044102724
0.7871538562
0.8741492974
0.8760471448
0.8726168904
0.7835432643
0.8743006330
0.8733033043
0.8395184750
0.8654057597
0.8594920158
0.8757620142
0.8661135566
0.8103672136
0.8260081758
0.7844707859
0.7730030676
0.7886274665
0.8220085572
0.7817749753
0.8725840127
0.8755270621
0.8714345570
0.7912223481
0.8755117922
0.8729823344
0.8546132831
0.8712486084
0.8555856291
0.7975185577
0.9094222269
0.9594940536
0.9590188897
0.9429592628
0.9712343794
0.9102620499
0.8265840976
0.7986529760
0.9450492379
0.7957117552
0.9415066033
0.8742271638
0.8230347652
0.8771075023
0.9522496798
0.9274955026
0.9675163820
0.9566268165
0.9658184846
0.9269728080
0.8436138538
0.8089856412
0.9587562450
0.8102368633
0.9526472867
0.8916947914
0.8393895776
0.8935534369
0.9572976389
0.7775293941
0.7975368950
0.7723871175
0.8730464545
0.7801083727
0.8591622120
0.8307338047
0.8567319629
0.8598775414
0.8712225273
0.8702872471
0.8706268039
0.7977847503
0.8605423444
0.7935355827
0.7766161568
0.8287345344
0.8746577612
0.7716049581
0.7847347901
0.7803523565
0.8743739123
0.7919858527
0.8674152917
0.8136298392
0.8467138040
0.8687112492
0.8705964054
0.8692369210
0.7898886094
0.8104922755
0.7750697213
0.8457521801
0.8732739403
0.8614976363
0.7928904782
0.8074548412
0.8123922855
0.9142772130
0.9594575912
0.8638608026
0.8551537210
0.8766873137
0.8091415852
0.8285777005
0.8796143512
0.8077455397
0.8405807991
0.8653319266
0.9674947908
0.8280567507
0.7986891066
0.9474465535
0.9116884750
0.9475708416
0.8150505534
0.8358978417
0.7925090537
0.9772344438
0.7982052095
0.8311115234
0.9644366662
0.8580605978
0.7939517399
0.8168577359
0.8034542481
0.9317860792
0.9653598086
0.8613674818
0.8590400709
0.8939971596
0.8010959268
0.8432436999
0.8967839442
0.8162115090
0.8325860622
0.8638034397
0.9657453448
0.8450223423
0.8123307573
0.9626324822
0.9298353747
0.9587209192
0.8202036017
0.8306570889
0.7873102232
0.9740786139
0.8007345307
0.8440308426
0.9725182990
0.8987162376
0.8684382294
0.8082345432
0.8197209279
0.8832975291
0.8665429022
0.7872739648
0.8728004514
0.9809875665
0.9816107057
0.9380989626
0.8521561379
0.9446397171
0.8977058874
0.7861897929
0.8674146990
0.7830372990
0.8789074067
0.8523940216
0.8646108902
0.8713122813
0.8596542487
0.8194386774
0.8623802448
0.7716996586
0.7869812056
0.9134733132
0.7733613455
0.9151547742
0.8670623775
0.8012738368
0.8021794353
0.8752218459
0.8677623239
0.8019671143
0.8702784066
0.9871176652
0.9864812440
0.9504538724
0.8628173975
0.9384562657
0.8889511780
0.7765389950
0.8637306659
0.7978192342
0.8967985212
0.8371900387
0.8812182175
0.8728404835
0.8369169657
0.7741788918
0.7763341656
0.9055324674
0.7772675909
0.8052002309
0.8411013868
0.8208122386
0.8623486935
0.8442627827
0.8091451504
0.8233918758
0.8256079963
0.9171601572
0.8649588280
0.8282613386
0.8518978297
0.8649234162
0.8596281305
0.8822071606
0.8174911532
0.7810645277
0.8359026632
0.7875896015
0.8373888754
0.8377219078
0.9516042761
0.8468872970
0.8653811284
0.7905172876
0.8420971219
0.8174272597
0.8245044132
0.8691575587
0.9749525760
0.8043787456
0.8311528910
0.8322034762
0.8305311999
0.8451783054
0.8652587971
0.8584759322
0.7875853773
0.8156891473
0.8619115422
0.8077583220
0.8551975139
0.8563251632
0.9644065248
0.8074845356
0.7982036399
0.7929322629
0.8622670941
0.8016064433
0.8488894035
0.8373867503
0.8273256258
0.8677637072
0.8494807725
0.8212223659
0.8243755911
0.8252108615
0.9350604359
0.8639109685
0.8358039379
0.8577770492
0.8543795781
0.8994991485
0.8260883421
0.7778455831
0.8517922095
0.8517902645
0.8298484451
0.9626052963
0.8532404376
0.8624495641
0.8044660210
0.8339560062
0.8166287993
0.8678740364
0.9740937073
0.7905335147
0.8026417525
0.8184585562
0.8481507850
0.8373957891
0.8637937340
0.8540614590
0.7897651728
0.8117512044
0.8592966117
0.8007422471
0.8440757064
0.8613843575
0.9723168074
0.8179174836
0.8010940288
0.8004545816
0.9193706557
0.8696526085
0.8629081907
0.8675470657
0.8628402604
0.8650563368
0.9722321280
0.8103420667
0.9384551007
0.8462106614
0.7811898209
0.7732542996
0.8731438909
0.8746293286
0.9674611207
0.9815915279
0.9538883751
0.8704841395
0.9227730383
0.8852577469
0.8713381850
0.8445679289
0.9628411733
0.8486021748
0.8590965609
0.8987086920
0.9462567510
0.8713513004
0.8713503883
0.8532617374
0.7915834799
0.7811689629
0.8685006644
0.8970567061
0.8899100814
0.9802837891
0.9839588580
0.8156227371
0.8538966546
0.9738215264
0.9566000206
0.8271269637
0.9772788951
0.8437332969
0.9370534385
0.8712097814
0.8676584576
0.8624165763
0.8578790768
0.9659902346
0.7939435834
0.9504491252
0.8477592745
0.7793139096
0.8899091186
0.8727836248
0.9763790191
0.9864607670
0.9646034026
0.8665591632
0.9259024867
0.9020471606
0.8739053626
0.8280519977
0.9738052304
0.8523405905
0.8513345079
0.9075650829
0.9380947075
0.8889501113
0.9106120092
0.8688957032
0.8082634624
0.7738461874
0.8658574515
0.9134744122
0.9807740772
0.9870972659
0.9524244630
0.8194776365
0.8492104203
0.9771160360
0.9628521896
0.8384017329
0.8379087671
0.8894886818
0.9674384419
0.8852551808
0.8596258613
0.9802624161
0.8282654563
0.8570256622
0.8194950571
0.9185084094
0.8360715720
0.9430400748
0.9831167610
0.9312844935
0.8610912751
0.8844579726
0.8159071069
0.9769570647
0.8384053003
0.9044587159
0.8159074605
0.7873146016
0.8377224892
0.9387559095
0.8468493193
0.8614321184
0.8650714736
0.8202128665
0.8611325801
0.9204197899
0.9151526036
0.8411182327
0.8326383899
0.8757363852
0.9718075211
0.8051922372
0.9686982448
0.8256086323
0.8027206269
0.8633883151
0.8844450223
0.8506261965
0.8336969910
0.9558999775
0.8671010092
0.8558326601
0.8306599994
0.8243108806
0.8637740280
0.8481670539
0.9589367745
0.8243218047
0.8443345240
0.9193680149
0.9023466315
0.8121092256
0.9487323020
0.9538729377
0.8388198698
0.9027661927
0.9763552717
0.9020449794
0.8712994721
0.9807547645
0.8252124255
0.8633863160
0.8314749140
0.8271409640
0.9106404939
0.8326045325
0.9390413332
0.9866280391
0.9256996425
0.8993553665
0.9765544713
0.8532573245
0.9180955098
0.8179307957
0.8170045530
0.8480995484
0.9465333026
0.8596419202
0.8421136177
0.8619538112
0.9323160270
0.9318910559
0.8339275561
0.8860657003
0.9720345129
0.9765459781
0.8298486845
0.8637320154
0.8713031050
0.8776562966
0.8413062991
0.9539910499
0.8489137530
0.8622464871
0.8581137620
0.9622462005
0.8328440236
0.8563402580
0.9370461999
0.8944744025
0.8184313944
0.9640592838
0.9645840727
0.8374603589
0.8688919321