<VTKFile type="UnstructuredGrid" version="0.1">
	<UnstructuredGrid>
		<Piece NumberOfPoints="1862" NumberOfCells="3498">
			<CellData>
				<DataArray type="Int32" Name="type" NumberOfComponents="1" Format="ascii">
0
0
0
0
0
0
0
0
0
0
0
0
0
0
0
0
1
0
0
1
0
0
0
0
0
0
0
0
0
0
0
0
0
1
0
0
0
0
0
0
0
0
0
0
0
0
0
0
0
0
1
0
0
0
0
0
0
0
0
0
0
1
0
0
0
0
0
0
0
0
0
0
0
0
0
0
0
0
0
0
0
0
0
0
0
0
0
0
0
0
0
0
0
0
0
0
0
0
0
0
0
0
0
0
0
0
0
0
0
0
0
0
0
0
0
0
0
0
0
0
0
0
0
1
0
0
0
0
0
0
0
0
0
0
0
0
0
0
0
0
0
0
0
0
0
0
0
0
0
0
0
1
0
1
1
0
0
0
0
0
0
0
0
0
0
0
0
0
1
0
1
0
0
0
0
1
0
0
0
0
0
0
0
0
1
1
0
0
0
0
0
1
0
0
0
0
0
0
0
0
1
0
0
0
0
0
0
0
0
0
0
0
0
0
0
0
0
0
0
0
0
0
0
0
0
0
0
0
0
0
0
0
0
1
0
0
0
0
0
0
0
0
0
0
0
0
0
0
0
0
0
0
0
0
0
0
0
0
0
0
0
0
0
0
0
0
0
0
0
0
0
0
0
0
0
0
0
0
0
0
0
1
0
0
0
0
0
0
0
0
0
0
0
0
0
0
0
0
0
0
0
0
0
0
0
0
0
0
0
0
0
0
0
0
0
0
0
0
0
0
0
0
0
0
0
0
0
0
0
0
0
0
1
0
0
0
0
0
0
0
0
0
0
0
0
0
0
0
0
0
0
0
0
0
0
0
0
0
0
0
0
0
0
0
0
0
0
0
0
0
0
0
0
0
0
0
0
0
0
0
0
0
0
0
0
0
0
0
0
0
1
0
0
0
0
0
0
0
0
0
0
0
0
0
0
0
0
0
0
0
0
0
0
0
0
0
0
0
0
0
0
0
0
0
0
0
0
0
0
0
0
0
0
0
0
0
0
0
0
0
0
0
0
0
0
0
0
0
0
0
0
0
0
0
0
0
0
0
0
0
0
0
0
0
0
0
0
0
0
0
0
0
0
0
0
0
0
0
0
0
0
0
0
0
0
0
0
0
0
0
0
0
0
0
0
0
0
0
0
0
0
0
0
0
0
0
0
0
0
0
0
0
0
0
0
0
0
0
0
0
0
0
0
1
0
0
0
0
0
0
0
0
0
0
0
0
0
0
0
0
0
0
0
1
0
0
0
0
0
0
0
0
0
0
0
0
0
0
0
0
0
0
0
0
0
0
0
0
0
0
0
0
0
0
0
0
0
0
0
0
0
0
0
0
0
0
0
0
0
0
0
0
0
0
0
0
0
1
0
0
0
0
0
0
0
0
0
0
0
0
0
0
0
0
0
0
0
0
0
0
0
1
0
0
0
0
0
0
0
0
0
0
0
0
0
0
0
0
0
0
0
1
0
0
0
1
0
0
0
0
0
0
0
0
0
0
0
0
0
0
0
0
0
0
0
0
0
0
0
0
0
1
0
0
0
0
0
0
0
1
0
0
0
0
0
0
0
0
0
0
0
0
0
0
0
0
0
0
0
0
0
0
0
0
0
0
1
0
0
0
0
0
0
0
1
0
0
0
0
0
0
1
0
0
0
0
0
0
0
0
0
0
0
0
0
0
0
0
0
0
0
0
0
0
0
0
0
0
0
0
0
0
0
0
0
0
0
0
0
0
1
0
0
0
0
0
1
0
0
0
0
0
0
0
1
0
0
0
0
0
0
0
0
0
0
0
0
0
1
0
0
0
0
0
0
0
0
0
0
0
0
0
0
0
0
0
0
0
0
0
0
0
0
0
0
0
0
0
0
0
0
0
0
0
0
0
0
0
0
0
0
0
0
0
0
0
0
0
0
0
0
0
1
0
0
0
0
0
0
0
0
0
0
0
0
0
0
0
0
0
0
0
1
0
0
0
0
0
0
0
0
0
1
0
0
0
0
0
0
0
0
0
0
0
0
0
0
0
0
0
0
0
0
0
0
0
0
0
0
0
0
0
1
0
1
0
0
0
0
0
0
0
0
0
0
0
0
0
0
0
0
0
0
0
0
0
0
0
0
0
0
0
1
0
0
0
1
0
0
0
0
0
0
0
0
0
0
0
0
0
0
0
0
0
0
0
0
0
0
0
0
0
0
0
0
1
0
0
0
0
0
0
0
0
0
0
0
0
0
0
0
0
0
0
0
0
0
0
0
0
0
1
0
0
0
0
0
0
0
0
0
0
0
0
0
0
0
0
0
0
0
0
0
0
0
1
0
0
0
0
0
0
1
0
0
0
0
0
0
0
0
0
0
0
1
0
0
0
0
0
0
0
0
0
0
0
0
0
0
0
0
0
0
0
0
1
0
0
0
0
0
0
0
0
0
0
0
1
0
0
0
0
0
0
0
0
0
0
0
0
0
0
0
0
0
0
0
0
0
1
0
0
0
0
0
0
0
0
0
1
1
0
1
0
1
0
0
0
0
0
0
0
0
0
0
0
1
0
0
0
0
0
1
1
0
0
0
0
0
0
1
0
0
0
0
0
1
1
1
0
0
0
0
0
0
0
0
0
0
0
0
1
1
0
0
1
0
0
0
0
0
1
0
0
0
1
0
1
0
0
0
0
0
0
0
1
0
0
0
0
0
0
0
1
0
0
1
0
0
0
0
0
0
0
0
0
0
0
0
0
0
0
1
0
0
0
0
0
0
0
0
0
0
0
0
0
0
0
0
0
0
0
0
0
0
0
0
0
0
0
0
0
0
0
0
0
0
0
0
1
0
0
0
0
0
0
1
0
0
0
1
0
0
0
0
0
0
0
0
0
0
0
1
0
0
0
0
0
0
0
0
0
0
0
0
0
0
0
0
0
0
0
0
0
0
0
0
0
0
0
0
0
0
0
0
0
0
0
0
0
0
0
0
1
1
0
0
0
0
0
0
0
0
0
0
0
0
0
1
0
0
0
0
0
0
0
0
0
0
0
0
0
0
0
0
0
0
0
0
0
0
0
0
0
0
0
0
0
0
0
0
0
0
0
0
0
0
0
0
0
0
0
0
0
0
0
0
0
0
0
0
0
0
0
0
0
0
0
0
0
0
0
0
0
0
0
0
0
0
0
0
1
1
0
0
0
0
0
0
0
0
1
0
0
0
0
0
0
0
0
0
0
0
0
0
0
0
0
0
0
0
0
0
0
0
1
0
0
0
0
0
0
0
0
0
0
0
0
0
0
0
0
1
0
0
0
0
0
0
0
0
0
0
0
0
0
0
0
0
0
0
0
0
0
0
0
0
0
0
0
0
0
0
0
0
0
0
0
0
0
0
0
0
0
0
0
0
0
0
0
0
0
0
0
0
0
0
0
0
0
0
0
0
0
0
0
0
0
0
0
0
0
0
0
0
0
0
0
0
0
0
0
0
0
0
0
0
0
0
0
0
0
0
1
1
0
0
0
0
0
1
0
0
0
0
0
0
0
0
0
0
0
0
1
0
0
0
0
0
0
0
0
0
0
0
0
0
0
0
0
0
0
0
0
0
0
0
0
0
0
0
0
0
0
0
0
0
0
0
0
0
0
0
0
0
0
0
0
0
0
0
0
0
0
0
0
0
1
0
1
0
0
0
0
0
0
0
0
0
0
0
0
0
0
0
0
0
0
1
0
0
0
0
0
0
0
0
0
0
0
0
0
0
0
0
0
0
0
0
0
0
0
0
0
0
0
0
0
0
0
0
0
0
0
0
0
0
0
0
0
0
0
0
0
0
0
0
0
0
0
0
0
0
0
0
0
0
0
0
0
0
0
0
0
0
0
0
0
0
1
0
0
0
0
0
0
0
0
0
0
1
0
0
0
0
0
0
0
0
0
0
0
0
0
0
0
0
0
0
0
0
0
0
0
0
0
0
0
0
0
0
0
0
0
0
0
0
0
1
0
0
0
0
0
0
0
0
0
0
0
0
0
0
0
0
0
0
0
0
0
0
0
0
0
0
0
0
0
0
0
0
0
0
0
0
0
0
0
0
0
0
0
0
0
0
0
0
0
0
0
0
0
0
0
0
0
0
0
0
0
0
0
0
0
0
0
0
0
0
0
0
0
0
0
0
0
0
0
0
0
1
0
0
0
0
0
0
0
0
0
0
0
0
0
0
0
0
0
0
0
0
0
0
0
0
0
0
0
0
0
0
0
0
0
0
0
0
0
0
0
0
0
0
0
0
0
0
0
0
0
0
0
0
0
0
0
0
0
0
0
0
0
0
0
0
0
0
0
0
0
0
0
0
0
0
0
0
0
0
0
0
0
0
0
0
0
0
0
0
0
0
0
0
0
0
0
0
0
0
0
0
0
0
0
0
0
0
0
0
0
0
0
0
0
0
0
0
0
0
0
0
0
0
0
1
0
0
0
0
0
0
0
0
0
0
0
0
0
0
0
0
0
0
0
0
0
0
0
0
0
0
0
0
0
0
0
0
0
0
0
0
0
0
0
0
0
0
0
0
0
0
0
0
0
0
0
0
0
0
0
0
0
0
0
0
0
0
0
0
0
0
0
0
0
0
0
0
0
0
0
0
0
0
0
0
0
1
0
0
0
0
0
0
0
1
0
0
0
0
0
0
0
0
0
0
0
0
0
0
0
0
0
0
0
0
0
0
0
0
0
0
0
0
0
0
0
0
0
0
0
0
0
1
0
0
0
0
0
0
0
0
0
0
0
0
0
0
0
0
0
0
0
0
0
1
0
0
0
0
0
0
0
0
0
0
0
0
1
1
0
0
0
0
0
0
0
0
0
0
0
0
0
0
0
1
1
0
1
0
0
0
0
0
0
0
0
0
1
0
0
0
0
0
0
1
0
0
0
0
0
0
0
0
0
0
1
0
0
0
0
1
0
1
0
0
0
0
0
0
0
1
0
0
0
1
0
0
0
1
0
1
1
0
0
1
1
0
0
0
1
0
0
0
1
0
0
0
0
0
0
0
0
0
1
0
0
0
0
0
0
1
0
0
0
0
0
0
0
0
0
0
0
0
0
0
0
0
0
0
0
0
0
0
0
0
0
0
0
1
0
0
1
0
0
0
0
0
0
0
0
0
0
0
0
0
0
0
0
0
0
1
0
0
1
0
0
0
0
0
0
0
0
0
0
0
1
0
0
1
0
0
0
0
0
0
0
0
0
0
0
1
1
0
0
0
0
0
0
0
0
0
0
0
0
1
0
0
0
0
0
0
0
0
0
0
0
0
0
0
0
0
0
1
0
0
0
0
0
0
0
0
0
0
0
0
0
0
0
0
0
1
0
0
0
0
0
0
0
0
0
0
0
0
0
0
0
0
0
0
0
0
0
0
0
0
0
0
0
0
0
0
0
0
0
0
0
0
0
0
0
0
1
0
0
0
0
0
0
0
0
0
0
0
0
0
0
0
0
0
0
0
0
0
0
0
0
0
0
0
0
0
0
0
0
0
0
0
0
0
0
0
0
0
0
0
0
0
1
0
0
0
0
0
0
0
0
0
0
0
0
0
0
0
0
0
0
0
0
0
0
0
0
0
0
0
0
0
0
0
0
0
0
0
0
0
0
0
0
0
0
0
0
0
0
0
1
0
0
0
0
0
0
0
0
0
0
1
0
0
0
0
0
0
0
0
0
0
0
0
0
0
0
1
0
0
1
0
0
0
0
0
0
0
0
0
0
0
0
0
0
0
0
0
0
0
0
0
0
0
1
0
0
0
0
0
0
0
0
0
0
0
0
0
0
0
0
0
0
0
0
0
0
0
0
0
0
0
0
0
0
0
0
0
0
0
1
0
0
0
0
0
0
0
0
0
0
0
0
0
0
0
0
0
0
0
0
0
0
0
0
0
0
0
0
0
0
0
0
0
0
0
0
0
0
0
0
0
0
0
0
0
0
0
0
0
0
0
0
0
0
0
0
0
0
0
0
0
0
0
0
0
0
0
0
0
0
0
0
0
0
0
0
1
0
0
0
0
0
0
0
0
0
0
0
0
0
0
0
0
0
0
0
0
0
0
0
0
0
0
0
0
0
0
0
0
0
0
0
0
0
0
0
1
0
0
0
0
0
0
0
0
0
0
0
0
1
1
0
0
0
0
0
0
0
0
0
0
0
0
0
0
0
0
0
0
0
0
0
0
0
0
0
0
0
0
0
0
0
0
0
0
0
0
0
0
0
0
0
0
0
0
0
0
0
0
0
0
0
0
0
0
0
0
0
0
0
0
0
0
0
0
0
0
0
0
0
0
0
0
0
0
0
0
0
0
0
0
0
0
0
0
0
0
0
0
0
0
0
0
0
0
0
0
0
0
0
0
0
1
0
1
0
0
0
0
0
0
0
1
1
1
1
0
0
0
0
0
0
0
0
0
0
0
0
0
0
0
0
0
0
0
0
0
0
0
0
0
0
0
0
1
1
0
0
0
0
0
0
0
0
0
0
0
0
0
0
0
0
0
0
1
0
0
0
0
0
0
0
1
1
0
1
1
0
0
1
0
0
0
0
0
0
0
1
0
1
0
0
0
0
0
0
0
0
0
0
0
0
0
0
0
0
0
0
0
0
0
0
0
0
0
0
0
1
1
0
0
0
1
1
0
0
0
0
1
0
0
1
0
1
0
0
0
0
0
1
0
0
0
1
0
0
0
0
0
0
0
0
0
0
0
0
0
0
0
0
0
0
0
0
0
0
0
0
0
0
0
1
0
0
0
0
0
0
1
0
0
0
0
0
0
0
0
0
0
0
0
0
0
0
0
0
0
0
0
0
0
0
0
0
0
0
0
0
1
0
1
0
0
0
0
0
0
0
1
0
0
0
0
0
0
0
0
0
0
0
1
0
0
0
0
0
0
0
0
0
1
0
0
0
0
0
0
0
1
0
0
0
0
0
0
0
1
0
0
0
0
0
0
0
0
0
0
0
0
0
0
0
0
0
0
0
1
0
1
0
0
0
0
0
1
0
0
0
0
0
0
0
0
0
0
0
0
0
0
0
0
0
0
0
0
0
0
0
0
0
1
0
1
0
0
0
0
0
0
0
0
0
1
0
0
0
0
0
1
0
0
0
0
0
0
0
0
0
0
0
0
0
0
0
1
0
0
0
0
0
0
0
0
1
0
0
0
0
0
0
0
0
0
0
0
0
0
0
0
0
0
0
0
0
0
0
0
0
0
0
0
0
0
0
1
0
0
0
0
0
0
0
0
0
0
0
0
0
0
0
0
1
0
0
0
0
0
0
0
0
1
0
0
0
0
0
0
0
0
0
1
0
0
0
0
0
1
0
0
0
0
0
0
0
0
0
0
0
0
0
0
0
0
0
0
0
1
0
0
0
0
0
0
1
0
0
0
0
0
0
0
0
1
0
0
0
0
0
0
0
0
0
0
0
0
0
0
1
0
0
1
0
0
0
1
0
0
0
0
0
0
0
0
0
0
0
0
0
0
0
0
1
0
0
0
0
0
0
0
0
0
0
1
0
1
0
0
0
0
0
0
1
0
0
0
0
0
0
0
0
0
0
0
0
0
0
0
0
0
0
0
0
0
0
0
0
0
0
0
1
1
0
0
0
0
0
0
1
0
0
0
0
0
0
0
0
0
0
0
0
0
1
0
0
0
0
0
0
0
1
0
0
0
0
0
0
0
0
0
0
0
0
0
0
0
0
0
0
0
0
0
0
0
0
0
0
0
1
0
0
0
0
0
0
0
0
0
0
1
0
0
1
0
0
0
0
0
0
0
0
0
0
0
0
0
0
0
0
0
0
0
0
0
0
0
0
0
0
0
0
0
1
0
0
0
0
0
0
0
1
0
0
0
0
0
0
0
1
0
0
0
0
1
0
0
0
0
0
0
0
0
0
0
0
1
0
1
0
0
0
1
0
				</DataArray>
				<DataArray type="Float64" Name="h" NumberOfComponents="1" Format="ascii">
0.7389288064
0.7388717633
0.7676089242
0.7567639104
0.7649914437
0.7644772671
0.7596636286
0.7438589424
0.7550530297
0.7334523412
0.7524176433
0.7647964079
0.7240132912
0.7477177888
0.7399784201
0.6870596104
0.7623307441
0.7280652779
0.7301856208
0.7534584541
0.7754475713
0.6962371133
0.7287235633
0.7714313982
0.7583352686
0.6793064370
0.6501092841
0.6784389461
0.7497395063
0.7431843975
0.7497039805
0.7421477177
0.6720212804
0.7708427755
0.7887573441
0.7659787960
0.7844284129
0.6854699020
0.6540621470
0.7751539434
0.7585492399
0.7356821960
0.6797864604
0.7185885582
0.7728678263
0.6984215542
0.7116118631
0.7912299471
0.6868356380
0.6815797254
0.7794360140
0.7469254339
0.7399897213
0.7228216337
0.7680738962
0.6223463681
0.7296827442
0.7964049315
0.7880492122
0.7653097943
0.8041657374
0.8047206977
0.6955226013
0.7628302767
0.6910646829
0.6680244288
0.6755357253
0.6869455299
0.8009870797
0.8032263808
0.7933122281
0.7787477637
0.6272897791
0.7226133557
0.7661017344
0.6057882550
0.7946416967
0.7939227797
0.7958354262
0.6244733453
0.8059074439
0.6730492153
0.6897196103
0.6774089249
0.6026540515
0.6274839037
0.8022548994
0.6654938101
0.7670421319
0.6852530409
0.7750671275
0.6185120759
0.7962762265
0.6821891243
0.6472831661
0.6400846952
0.6538825707
0.6184203863
0.6400946287
0.7965238566
0.6868106718
0.8085135886
0.6656051797
0.7984545544
0.7198257965
0.6674104469
0.6372900378
0.6850589200
0.7836304362
0.6620336443
0.6812222729
0.6840632276
0.7803835505
0.7318334941
0.6835166466
0.7468842314
0.6823811236
0.7306093928
0.7180160979
0.7015624165
0.7248782980
0.6630182627
0.6170762371
0.7300390251
0.7376638810
0.6909809167
0.7023730771
0.7253910763
0.7854578925
0.7205923455
0.7671698768
0.6472193071
0.7214567019
0.7936886059
0.7347516544
0.7458465921
0.6702636561
0.7651627751
0.8085203877
0.6383501948
0.7189218919
0.7336108774
0.7634880832
0.6150856572
0.6274124392
0.7855432927
0.6554151302
0.6922591785
0.7275615213
0.6883172317
0.6700277208
0.7900288608
0.7606388443
0.7044269888
0.8113842999
0.7196834361
0.7214006278
0.7145547876
0.6896445967
0.7173164053
0.6111077591
0.7014747364
0.6511546183
0.7153254228
0.7195314004
0.6942213424
0.5936975087
0.6337224803
0.7243093806
0.7154480673
0.7601482498
0.7228518505
0.7065545066
0.7078955589
0.5724953862
0.5631853224
0.5887175592
0.7109010234
0.6103658349
0.7107518185
0.7075579491
0.5667311471
0.7137060457
0.6214162838
0.7229447544
0.7200366357
0.5797808002
0.6571248730
0.7229853185
0.7247869039
0.5692115992
0.6251227841
0.7176990549
0.5767019031
0.5800646447
0.6970298077
0.6942477561
0.5800989587
0.5810603559
0.7309582950
0.7245984999
0.6328952441
0.7222312164
0.6692954221
0.5971906225
0.6899656972
0.6060664679
0.6512786813
0.5931957762
0.5621916102
0.5518874819
0.7200507698
0.6921404965
0.6902591496
0.6302363063
0.5642752725
0.5823961433
0.6796958423
0.5458139705
0.7075451397
0.6105375342
0.6864223946
0.5495326570
0.6797934534
0.6405593560
0.7683883215
0.7008411401
0.6677180055
0.6190072230
0.6914054616
0.7176491195
0.6831402079
0.6565871086
0.7789145125
0.7439397055
0.6752529114
0.5495657457
0.5543814808
0.7091686854
0.5206967733
0.5305524529
0.6051249706
0.6627906611
0.5424861286
0.6289854511
0.5797550948
0.6782849860
0.5392630148
0.5790834067
0.6474221646
0.5343113788
0.5189678072
0.6661003313
0.5673883932
0.5497374735
0.6615991980
0.5579772499
0.6044088441
0.6902483535
0.6821318703
0.5150414880
0.6398700878
0.6699482353
0.6838895112
0.6489772951
0.7483203732
0.8123479395
0.6063499897
0.7895259410
0.6929956554
0.7221611535
0.5358245806
0.6909857984
0.6716141997
0.6779753506
0.6166945619
0.6575076283
0.6783023246
0.6879488620
0.6299810109
0.7007805243
0.8223814805
0.7755032181
0.7853091114
0.7027075640
0.6857887898
0.6624281779
0.5111461030
0.6461380467
0.6249785320
0.5319608984
0.5327541796
0.5562631344
0.5793857788
0.4856878951
0.5124819775
0.5063227253
0.5319870008
0.6046837652
0.6615880740
0.6232800374
0.5539629780
0.5147137008
0.5411216431
0.5580610420
0.4951801091
0.4940149133
0.5153835669
0.6277956017
0.6408303243
0.6746957762
0.6731502294
0.8293763933
0.6040570989
0.7520747240
0.6868496859
0.4844738477
0.7016019629
0.8466694284
0.5058878870
0.6886873718
0.6495183997
0.7021813486
0.7898940627
0.6594819044
0.6644024073
0.6824849393
0.8183466993
0.6817520452
0.6921649021
0.7206221060
0.8254837167
0.8516787265
0.6166123997
0.6940368486
0.6293024595
0.7195241204
0.4927145764
0.9075493907
0.4536035772
0.5026906589
0.4743710995
0.6043496234
0.5201918647
0.5145432147
0.4746119503
0.5333640497
0.5813594211
0.8910456182
0.6690786478
0.5397300830
0.7121687200
0.5111815696
0.5820739935
0.9231809149
0.4606037513
0.6892642927
0.4737425048
0.4796965873
0.7543775317
0.7761275294
0.9232582683
0.6232709458
0.4943007562
0.5538671916
0.4931727344
0.6341470427
0.6595536817
0.6939277619
0.5807088223
0.7083863564
0.8687663008
0.5598554720
0.8719381862
0.6924662196
0.6939230695
0.8302183480
0.4548612696
0.7849936392
0.6426973696
0.6065958323
0.7163018679
0.8564601404
0.4566945313
0.7134346217
0.4788561515
0.6517839475
0.6786828790
0.6764044420
0.3969499078
0.8722971839
0.6191192895
0.6864436485
0.5797855917
0.8593479298
0.7008275830
0.4361756191
0.4109685233
0.4070617534
0.4309646367
0.6618630010
0.7493836242
0.3978130790
0.7002647237
0.5054491362
0.8518498039
0.7414699014
0.6313856816
0.6674420261
0.3926892600
0.6867185500
0.6529237249
0.7202844466
0.6764591419
0.4584358698
0.9113794796
0.8111935018
0.4460835352
0.7315287854
0.6618413360
0.6445838115
0.6127754931
0.4953708438
0.8411769752
0.9279609149
0.6971127516
0.8966145224
0.5608926787
0.7976048585
0.5164734074
0.6827736755
0.9367471758
0.7188311794
0.9148293601
0.6997359509
0.7027341504
0.9145704584
0.7546715602
0.8903853880
0.6505083262
0.6850723206
0.7190203448
0.4752831767
0.7808204323
0.6716747174
0.4476084158
0.6766046239
0.7022679252
0.7054124010
0.8180487226
0.7251634141
0.8934343589
0.5807034708
0.6440593492
0.4826981361
0.6127758353
0.9505294969
0.9347953549
0.7052850163
0.9522296902
0.5392210564
0.5543290179
0.4286958044
0.8764445996
0.4570507770
0.6987192403
0.6883245820
0.6558284223
0.4484713921
0.4631577033
0.8640027086
0.4262978202
0.7343997680
0.4784806446
0.6135857930
0.6832157334
0.9675844591
0.3758297506
0.5233234876
0.4434049508
0.4306674282
0.5605291754
0.4439032885
0.8771696801
0.9471407265
0.9656748566
0.7802236236
0.4196785825
0.6916124552
0.4196132440
0.6928388794
0.6364167984
0.9752613336
0.5038597478
0.4361786854
0.4035863642
0.4214546142
0.9804628355
0.7097315847
0.4225188600
0.7411874172
0.8527811956
0.3878624598
0.4070639772
0.4309662735
0.4466757179
0.6715258536
0.5416317844
0.5994937764
0.7080893503
0.4196757721
0.5183413727
0.7244366144
0.4262975577
0.6530163167
0.5233206727
0.7309705218
0.6698819407
0.5069531162
0.4103817505
0.5183462056
0.6956582578
0.6897438536
0.9191956539
0.4156665104
0.8366418327
0.4135547791
0.7120083730
0.6205698912
0.5107705549
0.7538618334
0.4286926967
0.7138744158
0.4506002098
0.4631515721
0.3234206718
0.5038553004
0.4214532950
0.5416297667
0.6205695876
0.5605372276
0.3241514605
0.4074715648
0.5241513334
0.3647387688
0.4068677316
0.4194346313
0.4784835707
0.3431330301
0.4265625803
0.9501856261
0.3862340367
0.4315943239
0.5619340500
0.4892490366
0.6291377853
0.5579098530
0.4352100295
0.8933957482
0.9439385734
0.4658471995
0.4246580407
0.9347974513
0.4438982490
0.4099158533
0.7547728917
0.4466768248
0.6883241856
0.7184967513
0.8934557247
0.4307441630
0.7058341472
0.7738594475
0.7158270443
0.6618569289
0.4787471014
0.6236620209
0.6760394170
0.7244442361
0.4620365540
0.3956432574
0.7054003633
0.7411942791
0.3933505605
0.6943984785
0.4273199849
0.8904322367
0.7203002872
0.6766134596
0.4518414045
0.8966309302
0.3023933499
0.3959093369
0.3776040878
0.4461018852
0.6440779022
0.5136464586
0.4943880673
0.9743008261
0.3698062129
0.5555263611
0.4266748722
0.9697288171
0.3988488477
0.6971041449
0.4018234560
0.3268729958
0.9549581476
0.8113921576
0.4018969409
0.3533411391
0.4448835467
0.8927496440
0.4386457399
0.6760403390
0.4110894225
0.7199259657
0.4505983704
0.4307465324
0.5107725686
0.4156652526
0.9467282283
0.6576639264
0.4623311055
0.5069514407
0.4049190394
0.5750673805
0.9750267146
0.4892473478
0.4804293174
0.3268728004
0.5503575362
0.4371252422
0.5579130671
0.4103831794
0.4658497248
0.4315926557
0.8131699004
0.9920240005
0.7437162858
0.7088765544
0.5241504574
0.3553789005
0.3029277661
0.4684109385
0.9717064574
0.8021283656
0.5619336937
0.3790964857
0.9741249446
0.7185232918
0.4039404031
0.4655432691
0.4166663921
0.8012110143
0.4306117908
0.5238780827
0.4068675064
0.7507458142
0.4010494168
0.4813314000
0.4321360653
0.7291923560
0.9127748817
0.9939585043
0.7291174347
0.6019149783
0.4123935435
0.4489616794
0.4049645615
0.9886790352
0.9919326014
0.3234217053
0.3936875205
0.3088242649
0.5188696588
0.8155691030
0.5751342031
0.5266078903
1.0052078682
1.0031372262
0.3578549967
0.3683766599
0.8874426561
0.3906179227
0.4189020126
0.6572557074
0.9853179069
1.0037742169
1.0012881572
0.4074270841
0.4162463990
0.6652603015
0.5426112126
0.5232715568
0.9721889775
1.0020850476
0.7871568539
0.8841073284
0.7804973459
1.0072252174
1.0095796197
0.5531169305
0.9920128159
0.9598137478
0.4019009388
1.0113249845
0.3862331878
1.0002578768
0.4227561721
0.4172512731
1.0109994639
0.4386461712
1.0072922023
0.9992049606
0.4246601247
0.9933322369
0.4128076833
0.3681193061
0.9897539715
0.9857790421
0.4284239131
0.7465453294
0.7535905132
0.7535388759
0.7464737918
0.7603673525
0.7648104177
0.7524441451
0.7494791038
0.7601692746
0.7644947333
0.7649689357
0.7601353285
0.7550203927
0.7400184706
0.7596948303
0.7398145774
0.7494491116
0.7603437862
0.7305767598
0.7280850266
0.7567407846
0.7675949677
0.7302694764
0.7432026318
0.7062204608
0.7667275512
0.7438257063
0.6793235749
0.7583548353
0.7334362792
0.7121019437
0.7239599818
0.7719892464
0.6662696131
0.7213038711
0.7397949922
0.7497211325
0.7305403925
0.7708405192
0.6720639108
0.7422523145
0.6456139520
0.7751570781
0.6350187915
0.7623202090
0.6870159844
0.6798325150
0.6540530564
0.7667174095
0.7061988394
0.7585997441
0.7476987512
0.7534457558
0.7719870882
0.7286054970
0.7895195942
0.6961871919
0.7800896286
0.7120437415
0.7754532045
0.7212092678
0.7023197798
0.6866420958
0.7912145132
0.6662352397
0.7728819127
0.7794207783
0.7117255885
0.6783626108
0.7714211229
0.7496576534
0.7297945778
0.6368047058
0.6500987372
0.7843045208
0.7174725890
0.6350145559
0.7581847067
0.7923885917
0.6455962597
0.7400945734
0.7895199352
0.6811921450
0.6993973705
0.7022389830
0.7800987481
0.7798865796
0.6865759110
0.7659475615
0.6911440543
0.6854140074
0.7825286052
0.7887711248
0.6956317478
0.6870116399
0.7140782365
0.7844465832
0.7628825997
0.7580909306
0.7895711926
0.7866901338
0.7184848894
0.7228280484
0.7450088760
0.7787600684
0.6272738135
0.8004886247
0.6111349504
0.6628174170
0.7843143158
0.8062862113
0.7924114331
0.7355668241
0.7946464796
0.7933311259
0.7462859066
0.7662423199
0.6368105213
0.6574831064
0.8009812787
0.7877690673
0.7174556741
0.8032075340
0.7798857856
0.7825116934
0.6479089164
0.7139411493
0.6882985657
0.7762991796
0.6765629591
0.6867763503
0.7468394206
0.6992714475
0.6983626043
0.6731159458
0.6774328407
0.7182794577
0.6811793536
0.6815593251
0.8041704359
0.8047366908
0.6574547354
0.8032754818
0.7460822776
0.7880049918
0.7776490557
0.7448261088
0.5957372535
0.6046394693
0.7895602042
0.7877900581
0.7613402702
0.7680314407
0.7970076825
0.8005005434
0.8062990832
0.6223415232
0.6967010929
0.7810218828
0.6111629570
0.7226192776
0.7866495188
0.7651710141
0.6185390295
0.7964151622
0.6628072620
0.7963169955
0.6882123004
0.7984328989
0.6401182295
0.7181039677
0.5951440787
0.7762328349
0.8085065366
0.6718061138
0.7934956851
0.6760021326
0.6679709264
0.6868189048
0.6755479245
0.7954949957
0.6184331536
0.8095036991
0.6401094662
0.7435891556
0.6765858779
0.7965715791
0.6673885304
0.6479070124
0.6905990491
0.6965569679
0.7837259160
0.6840636684
0.8032729956
0.7809307407
0.7805035828
0.7612276139
0.6057782690
0.6791658211
0.7775705922
0.7938793967
0.6046399791
0.7860422133
0.5957294414
0.6812051989
0.6620563200
0.7969894069
0.7934380148
0.6905883961
0.6985099976
0.8095150038
0.6274748816
0.6629941748
0.7455446437
0.7955166883
0.7128823253
0.7434178101
0.6759600484
0.6026592827
0.6244721347
0.8022378295
0.6897206044
0.8059019131
0.6824817831
0.7958506461
0.6718466186
0.7248782565
0.6655130987
0.5951438963
0.7859596255
0.6472052897
0.6776736684
0.6995659049
0.6910546239
0.7642933372
0.7519855145
0.7668769011
0.6472944273
0.6822170787
0.7078244404
0.6852691729
0.7749352923
0.7031107688
0.8010265495
0.7378627958
0.7025336765
0.6792107280
0.7206839371
0.6655896421
0.6934827681
0.6754793349
0.6983433804
0.7128782819
0.7453366402
0.7092702353
0.7347601338
0.7460004323
0.7216595977
0.7198266410
0.6539364029
0.6274286312
0.6732431152
0.7336196082
0.7178228841
0.6995708715
0.7077327332
0.7316528228
0.6850189157
0.6876158585
0.8010470193
0.7518110312
0.6834213953
0.7275633112
0.6777116269
0.7635849573
0.7273892516
0.7467987428
0.7641282281
0.7856233660
0.7029946957
0.6373075838
0.7314672424
0.6057826455
0.6704403687
0.7712371408
0.6934274771
0.7091204376
0.6850731297
0.7840290024
0.6877976515
0.8047382920
0.7014002310
0.6755352743
0.7900302912
0.7306021849
0.7973030642
0.7178802190
0.7389580317
0.6700341367
0.7606565389
0.8113778664
0.6876024419
0.7273833403
0.6337658348
0.7195258996
0.7176282467
0.7010580614
0.7314618082
0.7225824446
0.6923800315
0.6674264661
0.6732881313
0.7300308984
0.7854175374
0.6111397884
0.7244108240
0.6170682191
0.7670582757
0.7412341952
0.6511900574
0.7982388140
0.7014857859
0.7253884087
0.6896180072
0.8047210618
0.6702553364
0.7936860431
0.7373065374
0.6624152731
0.6877520789
0.7484517813
0.7651334415
0.7065287227
0.7447518986
0.6981974810
0.8085223969
0.7389470968
0.6704811029
0.6850804036
0.7712416973
0.6057753882
0.7972695876
0.7154724998
0.8046368379
0.7839971571
0.7601459213
0.7078878279
0.6883248539
0.7137067103
0.6570847490
0.7244123891
0.7225825123
0.6897516845
0.7245310949
0.6855115037
0.6150615904
0.6922434709
0.6553682171
0.7107473744
0.6923625716
0.7412219075
0.6674490225
0.7079925247
0.7189251556
0.7076109547
0.7982083300
0.5887319222
0.8103833582
0.6383007938
0.7010740210
0.7184531628
0.7229893848
0.7196473703
0.7214335529
0.6982041283
0.6501001299
0.7373101620
0.7367994443
0.7447420493
0.6624504210
0.7229479909
0.7483867198
0.7044364038
0.7145617562
0.8046349293
0.5797649131
0.6425507024
0.5800659500
0.5937010614
0.7184538425
0.6897211427
0.6970632363
0.7079925226
0.6855529833
0.8103863516
0.6909971172
0.7204262885
0.7245514488
0.6571212019
0.7212569058
0.6251116064
0.8047663489
0.7153297963
0.6941883394
0.5766909974
0.7069240193
0.7173157494
0.6328904320
0.6133989813
0.7228483371
0.7222346614
0.5724932044
0.6692934325
0.6501328829
0.7243029307
0.7246009446
0.7367902291
0.5810541781
0.6514690506
0.6103813147
0.7049541268
0.7204242857
0.7212561492
0.7200546768
0.7068586603
0.6909724506
0.7008099495
0.6976090500
0.5667311864
0.8047656369
0.5631886665
0.6425708330
0.7201515954
0.7216272425
0.7108252305
0.6921428088
0.5931940296
0.5692161107
0.7177180076
0.6133761898
0.7247839535
0.6514312745
0.6888299100
0.7024377085
0.6214134834
0.7200318279
0.6571462421
0.6105417141
0.6782929654
0.5797977812
0.6833509647
0.6290305931
0.5801086540
0.7216229189
0.5830734479
0.7129504125
0.5424885440
0.6677824549
0.7049597200
0.5495529819
0.7176953943
0.7144802342
0.6975824966
0.6942520064
0.7001530114
0.6044646901
0.6502039561
0.5673741222
0.5580048595
0.6661095894
0.5392534498
0.7201461652
0.7091772718
0.7008091221
0.7291495648
0.5916070780
0.5972023798
0.6888265620
0.6857238732
0.5358171619
0.7023604370
0.6779333161
0.6299991126
0.7757106112
0.7007082262
0.7181825122
0.6624191328
0.6063552587
0.6909083454
0.7308754227
0.6820765615
0.6489881634
0.7896557245
0.7189251607
0.7484578033
0.6715901355
0.5518990497
0.5319944776
0.6285601338
0.7075399870
0.5063174459
0.5327403106
0.6677749324
0.5830804451
0.6833497527
0.6996913605
0.5758719811
0.5794349340
0.6461480848
0.7129459123
0.5621785518
0.6512513606
0.6060105743
0.6899588956
0.5458284982
0.5540065715
0.6278144416
0.7144729753
0.5153966933
0.5147014618
0.6796923079
0.5642824040
0.5580403474
0.6051301193
0.6769160383
0.5823570462
0.6501820280
0.6301833918
0.7001426680
0.6831894373
0.5058767710
0.5882037320
0.6293112442
0.6644178164
0.6817361464
0.6565929647
0.7189262857
0.7437715868
0.8185472608
0.6190093788
0.7788349970
0.7534979079
0.6920882912
0.7204370492
0.5495406835
0.7290444715
0.6914608856
0.6752784391
0.6798401356
0.6040403942
0.6495415729
0.6746949160
0.6868134465
0.6405515910
0.7008804915
0.7181448497
0.8294885087
0.5916350094
0.7681860835
0.7900073373
0.7014599173
0.7542679327
0.6864739547
0.6677286409
0.4927348468
0.5814004709
0.6627817513
0.6996850956
0.6043598940
0.5543378032
0.5305623789
0.5735778712
0.5333953036
0.5758896455
0.6050760687
0.4743680101
0.5201781748
0.5206956255
0.6285326318
0.5112078649
0.5820928218
0.6769039879
0.6433789182
0.5790285403
0.5189805309
0.5538427798
0.5577250303
0.5497450106
0.6050934166
0.4797032392
0.4942932346
0.5342827838
0.6474105393
0.6313746781
0.6783104065
0.6674577858
0.8223270199
0.6167056027
0.7490827308
0.6879986168
0.4788502144
0.7028429281
0.7543599451
0.7912246828
0.8519529249
0.5873393103
0.5150521161
0.6864517621
0.6574928841
0.7001969362
0.7851235127
0.6517925788
0.6699431395
0.6786964830
0.8121192986
0.5882394601
0.7921684265
0.6839162072
0.6930818086
0.7223036068
0.8302407081
0.8565186399
0.6065622695
0.6924561973
0.6398612546
0.7161128173
0.7535096584
0.9113440494
0.6827616875
0.5779662995
0.7315245324
0.5111177287
0.5813697609
0.9129719692
0.9130145498
0.4460840075
0.6758756003
0.5164608879
0.4856862760
0.7228077638
0.8410799315
0.9225422510
0.6249675070
0.5124906977
0.5736093239
0.4953866602
0.4584455463
0.5562244018
0.6529110722
0.6406232683
0.7027369943
0.5608994630
0.7005005327
0.8154895835
0.5372245723
0.8903593868
0.6705190564
0.5543123281
0.7155509322
0.5319523517
0.6046660210
0.9086373757
0.9286687908
0.4476126065
0.6896081781
0.4826923897
0.4951633989
0.7428890414
0.7908414637
0.9191906857
0.6433675347
0.4940219397
0.5411376918
0.5170694073
0.4752970599
0.5576961871
0.6323547558
0.6615921858
0.6958650245
0.6019243257
0.7097820072
0.8770016237
0.5392321374
0.3970177247
0.8771868104
0.5915504954
0.6940736550
0.4619081726
0.8291271157
0.6916269943
0.8253849479
0.4434024734
0.4359310473
0.4014684865
0.7799233829
0.4196116324
0.3547667129
0.6363910590
0.7923589262
0.6166313066
0.4360313409
0.7197490616
0.5699676205
0.8516327600
0.4570495900
0.7096886791
0.4844788596
0.6594722621
0.6824804594
0.3814319023
0.6715262954
0.3878619599
0.8764516801
0.6135547788
0.6886961419
0.5555271802
0.8639609540
0.6987272268
0.7913307981
0.4568779389
0.4466716315
0.4103457272
0.8294027803
0.4023573909
0.3816001851
0.6558164502
0.7523468577
0.5873747097
0.3698049508
0.7022901975
0.4484707079
0.8465317418
0.7342242572
0.6408310864
0.6731405226
0.3758289535
0.6832251661
0.6529423582
0.8595031829
0.7263313186
0.8625698115
0.6698783886
0.6758874072
0.6956488468
0.7092276847
0.4745959521
0.9060411661
0.7358356560
0.8176736865
0.9060094160
0.6529370972
0.4535996394
0.7402654331
0.6657051634
0.6406268993
0.6848443099
0.6090810392
0.6869356231
0.5145225583
0.8490020481
0.9225507011
0.6993419464
0.8933917612
0.7402281989
0.7538599861
0.8910972334
0.5813496795
0.6249250442
0.8155269520
0.5027010853
0.6341528628
0.6445819970
0.9501713672
0.9439288672
0.6848487400
0.7138659942
0.9420718298
0.7228064859
0.9130384263
0.9484557778
0.5372056924
0.5779984917
0.7005062444
0.7046357993
0.9279506343
0.6690939205
0.9227259223
0.7657693288
0.7975999756
0.8854293802
0.6477275259
0.6595630377
0.6815187607
0.7189286894
0.4931545100
0.9129861746
0.7639280812
0.8626985001
0.6737568898
0.4605936505
0.7761726821
0.6803639024
0.6175093130
0.6175092544
0.6994151130
0.5170541960
0.8911091172
0.9232077937
0.7081173784
0.8386896004
0.7296526263
0.8893357922
0.6019162044
0.6470735818
0.6997268940
0.7543954547
0.4737468990
0.6090833846
0.9467185170
0.9321616482
0.6939330753
0.7049402288
0.9374099387
0.7097819546
0.8770659584
0.9575653309
0.5598416204
0.5397529123
0.6896187255
0.7121607769
0.4422241628
0.8722772379
0.8927464763
0.9697144159
0.8296163350
0.4566949345
0.4306701132
0.7008504807
0.4023588815
0.7058299641
0.6912410173
0.6618595591
0.5054488979
0.9742732396
0.5008691328
0.4359339930
0.4801415767
0.8593500839
0.3987441011
0.4267829902
0.9741136690
0.7417329151
0.4197907936
0.7259978088
0.9323364137
0.3970198626
0.4109714564
0.4975283690
0.4975284975
0.4650603448
0.6191431384
0.6867125636
0.9627214135
0.3926909830
0.3720664567
0.5406928206
0.4548633615
0.6236497791
0.6933253753
0.4271347223
0.4201772424
0.5465806826
0.4273642933
0.7374350071
0.4599443492
0.8719040050
0.9549532959
0.9623423010
0.7853143262
0.4270917202
0.6939216561
0.4103482522
0.6907923539
0.6427056666
0.3720682781
0.9716770315
0.5211583295
0.4466744018
0.4836115706
0.8292956419
0.3959086741
0.4298767559
0.9759050776
0.7135436216
0.4271379052
0.7457968320
0.8774880619
0.3969513618
0.4014709291
0.3816022073
0.3931986708
0.4381708937
0.5915734349
0.6763971396
0.9633956119
0.3814320471
0.5601217529
0.4568803060
0.4139117700
0.5878361864
0.7059257717
0.4408119645
0.4197877999
0.5036064984
0.7230400809
0.3881898824
0.5008610264
0.4267809959
0.6529380333
0.5406873724
0.7358422994
0.6505093274
0.5878519976
0.3315061716
0.6665609022
0.4176157741
0.4921639487
0.3779197214
0.9384311980
0.4189204717
0.6944444068
0.4229950434
0.5036153393
0.3407078452
0.6944557585
0.6958631388
0.6869414339
0.4063305805
0.8488774114
0.9086597766
0.6530158325
0.6323657753
0.9384433387
0.3747597278
0.4077099143
0.8595024164
0.7909441595
0.6194261626
0.4181027517
0.6529270156
0.4703215687
0.7092372610
0.7083908739
0.6240594223
0.5564760790
0.9148153878
0.6002157086
0.4433010084
0.9075763830
0.9515896169
0.6615978599
0.7681273793
0.9553398671
0.5236236028
0.4188668186
0.7681300880
0.9016874084
0.4422171883
0.2983471195
0.7146139436
0.4357089253
0.4801328870
0.8688036287
0.3113501843
0.5211517060
0.4298717917
0.6276420255
0.5601178696
0.7189377048
0.6240592750
0.7120002583
0.5465924379
0.3265015849
0.6850789953
0.4017259193
0.5090538700
0.3683776626
0.4065830844
0.4122218734
0.4650646105
0.3475932711
0.6764498397
0.7052952065
0.6716778692
0.4172521969
0.9232629899
0.8366431127
0.9420826557
0.3856973658
0.4187188088
0.7808247320
0.5121530487
0.4017975346
0.4740625279
0.6994234338
0.9553237492
0.6276421593
0.6185888988
0.5696522004
0.4227556567
0.9227279573
0.9522431202
0.4781013400
0.4181590961
0.8180486446
0.9484592606
0.4599363694
0.3463462698
0.7251682921
0.4548911095
0.4836055622
0.7659737135
0.4381718645