<VTKFile type="UnstructuredGrid" version="0.1">
	<UnstructuredGrid>
		<Piece NumberOfPoints="1862" NumberOfCells="3498">
			<CellData>
				<DataArray type="Int32" Name="type" NumberOfComponents="1" Format="ascii">
0
0
0
0
0
0
0
0
0
0
0
0
0
0
0
0
1
0
0
1
0
0
0
0
0
0
0
0
0
0
0
0
0
1
0
0
0
0
0
0
0
0
0
0
0
0
0
0
0
0
1
0
0
0
0
0
0
0
0
0
0
1
0
0
0
0
0
0
0
0
0
0
0
0
0
0
0
0
0
0
0
0
0
0
0
0
0
0
0
0
0
0
0
0
0
0
0
0
0
0
0
0
0
0
0
0
0
0
0
0
0
0
0
0
0
0
0
0
0
0
0
0
0
1
0
0
0
0
0
0
0
0
0
0
0
0
0
0
0
0
0
0
0
0
0
0
0
0
0
0
0
1
0
1
1
0
0
0
0
0
0
0
0
0
0
0
0
0
1
0
1
0
0
0
0
1
0
0
0
0
0
0
0
0
1
1
0
0
0
0
0
1
0
0
0
0
0
0
0
0
1
0
0
0
0
0
0
0
0
0
0
0
0
0
0
0
0
0
0
0
0
0
0
0
0
0
0
0
0
0
0
0
0
1
0
0
0
0
0
0
0
0
0
0
0
0
0
0
0
0
0
0
0
0
0
0
0
0
0
0
0
0
0
0
0
0
0
0
0
0
0
0
0
0
0
0
0
0
0
0
0
1
0
0
0
0
0
0
0
0
0
0
0
0
0
0
0
0
0
0
0
0
0
0
0
0
0
0
0
0
0
0
0
0
0
0
0
0
0
0
0
0
0
0
0
0
0
0
0
0
0
0
1
0
0
0
0
0
0
0
0
0
0
0
0
0
0
0
0
0
0
0
0
0
0
0
0
0
0
0
0
0
0
0
0
0
0
0
0
0
0
0
0
0
0
0
0
0
0
0
0
0
0
0
0
0
0
0
0
0
1
0
0
0
0
0
0
0
0
0
0
0
0
0
0
0
0
0
0
0
0
0
0
0
0
0
0
0
0
0
0
0
0
0
0
0
0
0
0
0
0
0
0
0
0
0
0
0
0
0
0
0
0
0
0
0
0
0
0
0
0
0
0
0
0
0
0
0
0
0
0
0
0
0
0
0
0
0
0
0
0
0
0
0
0
0
0
0
0
0
0
0
0
0
0
0
0
0
0
0
0
0
0
0
0
0
0
0
0
0
0
0
0
0
0
0
0
0
0
0
0
0
0
0
0
0
0
0
0
0
0
0
0
1
0
0
0
0
0
0
0
0
0
0
0
0
0
0
0
0
0
0
0
1
0
0
0
0
0
0
0
0
0
0
0
0
0
0
0
0
0
0
0
0
0
0
0
0
0
0
0
0
0
0
0
0
0
0
0
0
0
0
0
0
0
0
0
0
0
0
0
0
0
0
0
0
0
1
0
0
0
0
0
0
0
0
0
0
0
0
0
0
0
0
0
0
0
0
0
0
0
1
0
0
0
0
0
0
0
0
0
0
0
0
0
0
0
0
0
0
0
1
0
0
0
1
0
0
0
0
0
0
0
0
0
0
0
0
0
0
0
0
0
0
0
0
0
0
0
0
0
1
0
0
0
0
0
0
0
1
0
0
0
0
0
0
0
0
0
0
0
0
0
0
0
0
0
0
0
0
0
0
0
0
0
0
1
0
0
0
0
0
0
0
1
0
0
0
0
0
0
1
0
0
0
0
0
0
0
0
0
0
0
0
0
0
0
0
0
0
0
0
0
0
0
0
0
0
0
0
0
0
0
0
0
0
0
0
0
0
1
0
0
0
0
0
1
0
0
0
0
0
0
0
1
0
0
0
0
0
0
0
0
0
0
0
0
0
1
0
0
0
0
0
0
0
0
0
0
0
0
0
0
0
0
0
0
0
0
0
0
0
0
0
0
0
0
0
0
0
0
0
0
0
0
0
0
0
0
0
0
0
0
0
0
0
0
0
0
0
0
0
1
0
0
0
0
0
0
0
0
0
0
0
0
0
0
0
0
0
0
0
1
0
0
0
0
0
0
0
0
0
1
0
0
0
0
0
0
0
0
0
0
0
0
0
0
0
0
0
0
0
0
0
0
0
0
0
0
0
0
0
1
0
1
0
0
0
0
0
0
0
0
0
0
0
0
0
0
0
0
0
0
0
0
0
0
0
0
0
0
0
1
0
0
0
1
0
0
0
0
0
0
0
0
0
0
0
0
0
0
0
0
0
0
0
0
0
0
0
0
0
0
0
0
1
0
0
0
0
0
0
0
0
0
0
0
0
0
0
0
0
0
0
0
0
0
0
0
0
0
1
0
0
0
0
0
0
0
0
0
0
0
0
0
0
0
0
0
0
0
0
0
0
0
1
0
0
0
0
0
0
1
0
0
0
0
0
0
0
0
0
0
0
1
0
0
0
0
0
0
0
0
0
0
0
0
0
0
0
0
0
0
0
0
1
0
0
0
0
0
0
0
0
0
0
0
1
0
0
0
0
0
0
0
0
0
0
0
0
0
0
0
0
0
0
0
0
0
1
0
0
0
0
0
0
0
0
0
1
1
0
1
0
1
0
0
0
0
0
0
0
0
0
0
0
1
0
0
0
0
0
1
1
0
0
0
0
0
0
1
0
0
0
0
0
1
1
1
0
0
0
0
0
0
0
0
0
0
0
0
1
1
0
0
1
0
0
0
0
0
1
0
0
0
1
0
1
0
0
0
0
0
0
0
1
0
0
0
0
0
0
0
1
0
0
1
0
0
0
0
0
0
0
0
0
0
0
0
0
0
0
1
0
0
0
0
0
0
0
0
0
0
0
0
0
0
0
0
0
0
0
0
0
0
0
0
0
0
0
0
0
0
0
0
0
0
0
0
1
0
0
0
0
0
0
1
0
0
0
1
0
0
0
0
0
0
0
0
0
0
0
1
0
0
0
0
0
0
0
0
0
0
0
0
0
0
0
0
0
0
0
0
0
0
0
0
0
0
0
0
0
0
0
0
0
0
0
0
0
0
0
0
1
1
0
0
0
0
0
0
0
0
0
0
0
0
0
1
0
0
0
0
0
0
0
0
0
0
0
0
0
0
0
0
0
0
0
0
0
0
0
0
0
0
0
0
0
0
0
0
0
0
0
0
0
0
0
0
0
0
0
0
0
0
0
0
0
0
0
0
0
0
0
0
0
0
0
0
0
0
0
0
0
0
0
0
0
0
0
0
1
1
0
0
0
0
0
0
0
0
1
0
0
0
0
0
0
0
0
0
0
0
0
0
0
0
0
0
0
0
0
0
0
0
1
0
0
0
0
0
0
0
0
0
0
0
0
0
0
0
0
1
0
0
0
0
0
0
0
0
0
0
0
0
0
0
0
0
0
0
0
0
0
0
0
0
0
0
0
0
0
0
0
0
0
0
0
0
0
0
0
0
0
0
0
0
0
0
0
0
0
0
0
0
0
0
0
0
0
0
0
0
0
0
0
0
0
0
0
0
0
0
0
0
0
0
0
0
0
0
0
0
0
0
0
0
0
0
0
0
0
0
1
1
0
0
0
0
0
1
0
0
0
0
0
0
0
0
0
0
0
0
1
0
0
0
0
0
0
0
0
0
0
0
0
0
0
0
0
0
0
0
0
0
0
0
0
0
0
0
0
0
0
0
0
0
0
0
0
0
0
0
0
0
0
0
0
0
0
0
0
0
0
0
0
0
1
0
1
0
0
0
0
0
0
0
0
0
0
0
0
0
0
0
0
0
0
1
0
0
0
0
0
0
0
0
0
0
0
0
0
0
0
0
0
0
0
0
0
0
0
0
0
0
0
0
0
0
0
0
0
0
0
0
0
0
0
0
0
0
0
0
0
0
0
0
0
0
0
0
0
0
0
0
0
0
0
0
0
0
0
0
0
0
0
0
0
0
1
0
0
0
0
0
0
0
0
0
0
1
0
0
0
0
0
0
0
0
0
0
0
0
0
0
0
0
0
0
0
0
0
0
0
0
0
0
0
0
0
0
0
0
0
0
0
0
0
1
0
0
0
0
0
0
0
0
0
0
0
0
0
0
0
0
0
0
0
0
0
0
0
0
0
0
0
0
0
0
0
0
0
0
0
0
0
0
0
0
0
0
0
0
0
0
0
0
0
0
0
0
0
0
0
0
0
0
0
0
0
0
0
0
0
0
0
0
0
0
0
0
0
0
0
0
0
0
0
0
0
1
0
0
0
0
0
0
0
0
0
0
0
0
0
0
0
0
0
0
0
0
0
0
0
0
0
0
0
0
0
0
0
0
0
0
0
0
0
0
0
0
0
0
0
0
0
0
0
0
0
0
0
0
0
0
0
0
0
0
0
0
0
0
0
0
0
0
0
0
0
0
0
0
0
0
0
0
0
0
0
0
0
0
0
0
0
0
0
0
0
0
0
0
0
0
0
0
0
0
0
0
0
0
0
0
0
0
0
0
0
0
0
0
0
0
0
0
0
0
0
0
0
0
0
1
0
0
0
0
0
0
0
0
0
0
0
0
0
0
0
0
0
0
0
0
0
0
0
0
0
0
0
0
0
0
0
0
0
0
0
0
0
0
0
0
0
0
0
0
0
0
0
0
0
0
0
0
0
0
0
0
0
0
0
0
0
0
0
0
0
0
0
0
0
0
0
0
0
0
0
0
0
0
0
0
0
1
0
0
0
0
0
0
0
1
0
0
0
0
0
0
0
0
0
0
0
0
0
0
0
0
0
0
0
0
0
0
0
0
0
0
0
0
0
0
0
0
0
0
0
0
0
1
0
0
0
0
0
0
0
0
0
0
0
0
0
0
0
0
0
0
0
0
0
1
0
0
0
0
0
0
0
0
0
0
0
0
1
1
0
0
0
0
0
0
0
0
0
0
0
0
0
0
0
1
1
0
1
0
0
0
0
0
0
0
0
0
1
0
0
0
0
0
0
1
0
0
0
0
0
0
0
0
0
0
1
0
0
0
0
1
0
1
0
0
0
0
0
0
0
1
0
0
0
1
0
0
0
1
0
1
1
0
0
1
1
0
0
0
1
0
0
0
1
0
0
0
0
0
0
0
0
0
1
0
0
0
0
0
0
1
0
0
0
0
0
0
0
0
0
0
0
0
0
0
0
0
0
0
0
0
0
0
0
0
0
0
0
1
0
0
1
0
0
0
0
0
0
0
0
0
0
0
0
0
0
0
0
0
0
1
0
0
1
0
0
0
0
0
0
0
0
0
0
0
1
0
0
1
0
0
0
0
0
0
0
0
0
0
0
1
1
0
0
0
0
0
0
0
0
0
0
0
0
1
0
0
0
0
0
0
0
0
0
0
0
0
0
0
0
0
0
1
0
0
0
0
0
0
0
0
0
0
0
0
0
0
0
0
0
1
0
0
0
0
0
0
0
0
0
0
0
0
0
0
0
0
0
0
0
0
0
0
0
0
0
0
0
0
0
0
0
0
0
0
0
0
0
0
0
0
1
0
0
0
0
0
0
0
0
0
0
0
0
0
0
0
0
0
0
0
0
0
0
0
0
0
0
0
0
0
0
0
0
0
0
0
0
0
0
0
0
0
0
0
0
0
1
0
0
0
0
0
0
0
0
0
0
0
0
0
0
0
0
0
0
0
0
0
0
0
0
0
0
0
0
0
0
0
0
0
0
0
0
0
0
0
0
0
0
0
0
0
0
0
1
0
0
0
0
0
0
0
0
0
0
1
0
0
0
0
0
0
0
0
0
0
0
0
0
0
0
1
0
0
1
0
0
0
0
0
0
0
0
0
0
0
0
0
0
0
0
0
0
0
0
0
0
0
1
0
0
0
0
0
0
0
0
0
0
0
0
0
0
0
0
0
0
0
0
0
0
0
0
0
0
0
0
0
0
0
0
0
0
0
1
0
0
0
0
0
0
0
0
0
0
0
0
0
0
0
0
0
0
0
0
0
0
0
0
0
0
0
0
0
0
0
0
0
0
0
0
0
0
0
0
0
0
0
0
0
0
0
0
0
0
0
0
0
0
0
0
0
0
0
0
0
0
0
0
0
0
0
0
0
0
0
0
0
0
0
0
1
0
0
0
0
0
0
0
0
0
0
0
0
0
0
0
0
0
0
0
0
0
0
0
0
0
0
0
0
0
0
0
0
0
0
0
0
0
0
0
1
0
0
0
0
0
0
0
0
0
0
0
0
1
1
0
0
0
0
0
0
0
0
0
0
0
0
0
0
0
0
0
0
0
0
0
0
0
0
0
0
0
0
0
0
0
0
0
0
0
0
0
0
0
0
0
0
0
0
0
0
0
0
0
0
0
0
0
0
0
0
0
0
0
0
0
0
0
0
0
0
0
0
0
0
0
0
0
0
0
0
0
0
0
0
0
0
0
0
0
0
0
0
0
0
0
0
0
0
0
0
0
0
0
0
0
1
0
1
0
0
0
0
0
0
0
1
1
1
1
0
0
0
0
0
0
0
0
0
0
0
0
0
0
0
0
0
0
0
0
0
0
0
0
0
0
0
0
1
1
0
0
0
0
0
0
0
0
0
0
0
0
0
0
0
0
0
0
1
0
0
0
0
0
0
0
1
1
0
1
1
0
0
1
0
0
0
0
0
0
0
1
0
1
0
0
0
0
0
0
0
0
0
0
0
0
0
0
0
0
0
0
0
0
0
0
0
0
0
0
0
1
1
0
0
0
1
1
0
0
0
0
1
0
0
1
0
1
0
0
0
0
0
1
0
0
0
1
0
0
0
0
0
0
0
0
0
0
0
0
0
0
0
0
0
0
0
0
0
0
0
0
0
0
0
1
0
0
0
0
0
0
1
0
0
0
0
0
0
0
0
0
0
0
0
0
0
0
0
0
0
0
0
0
0
0
0
0
0
0
0
0
1
0
1
0
0
0
0
0
0
0
1
0
0
0
0
0
0
0
0
0
0
0
1
0
0
0
0
0
0
0
0
0
1
0
0
0
0
0
0
0
1
0
0
0
0
0
0
0
1
0
0
0
0
0
0
0
0
0
0
0
0
0
0
0
0
0
0
0
1
0
1
0
0
0
0
0
1
0
0
0
0
0
0
0
0
0
0
0
0
0
0
0
0
0
0
0
0
0
0
0
0
0
1
0
1
0
0
0
0
0
0
0
0
0
1
0
0
0
0
0
1
0
0
0
0
0
0
0
0
0
0
0
0
0
0
0
1
0
0
0
0
0
0
0
0
1
0
0
0
0
0
0
0
0
0
0
0
0
0
0
0
0
0
0
0
0
0
0
0
0
0
0
0
0
0
0
1
0
0
0
0
0
0
0
0
0
0
0
0
0
0
0
0
1
0
0
0
0
0
0
0
0
1
0
0
0
0
0
0
0
0
0
1
0
0
0
0
0
1
0
0
0
0
0
0
0
0
0
0
0
0
0
0
0
0
0
0
0
1
0
0
0
0
0
0
1
0
0
0
0
0
0
0
0
1
0
0
0
0
0
0
0
0
0
0
0
0
0
0
1
0
0
1
0
0
0
1
0
0
0
0
0
0
0
0
0
0
0
0
0
0
0
0
1
0
0
0
0
0
0
0
0
0
0
1
0
1
0
0
0
0
0
0
1
0
0
0
0
0
0
0
0
0
0
0
0
0
0
0
0
0
0
0
0
0
0
0
0
0
0
0
1
1
0
0
0
0
0
0
1
0
0
0
0
0
0
0
0
0
0
0
0
0
1
0
0
0
0
0
0
0
1
0
0
0
0
0
0
0
0
0
0
0
0
0
0
0
0
0
0
0
0
0
0
0
0
0
0
0
1
0
0
0
0
0
0
0
0
0
0
1
0
0
1
0
0
0
0
0
0
0
0
0
0
0
0
0
0
0
0
0
0
0
0
0
0
0
0
0
0
0
0
0
1
0
0
0
0
0
0
0
1
0
0
0
0
0
0
0
1
0
0
0
0
1
0
0
0
0
0
0
0
0
0
0
0
1
0
1
0
0
0
1
0
				</DataArray>
				<DataArray type="Float64" Name="h" NumberOfComponents="1" Format="ascii">
0.9053565947
0.9053935907
0.9002213176
0.9047760156
0.8992451320
0.9014253661
0.9023944090
0.9068489190
0.9044270248
0.9103795520
0.9066652293
0.9018012657
0.9056756385
0.9082401593
0.9063831434
0.9071926395
0.9036000718
0.9093474762
0.9036426046
0.9071320200
0.8975269156
0.9040408191
0.8991550787
0.8973404581
0.9051732435
0.9104041683
0.8975100175
0.8828333296
0.8973786449
0.9096829528
0.9085291803
0.9004672534
0.9029576866
0.9000461572
0.8878896618
0.8947907554
0.8923268636
0.8954230438
0.8799462724
0.8961368965
0.8978589427
0.8852133385
0.8989685281
0.8937419357
0.8945994823
0.8870724477
0.8970162089
0.8841773342
0.8367601099
0.8397023400
0.8955961615
0.8916515796
0.8949003133
0.8688285663
0.8887784823
0.8945188138
0.8884655361
0.8759360711
0.8730874520
0.8735576360
0.8640979695
0.8675902499
0.8409726343
0.8923152763
0.8900352762
0.8748484984
0.8426756409
0.8445585406
0.8677788576
0.8718213826
0.8711225632
0.8892006208
0.8910099260
0.8643354380
0.8691646992
0.8677686931
0.8760736807
0.8625320882
0.8799103194
0.8734917672
0.8544733720
0.8714051854
0.8279446839
0.8478985927
0.8758148201
0.8658389933
0.8509478272
0.8500755950
0.8583924474
0.8297189401
0.8480273248
0.8692271274
0.8586968643
0.8312301854
0.8639874142
0.8677347775
0.8531653951
0.8763705575
0.8755937927
0.8510867169
0.8294740551
0.8547677656
0.8614890456
0.8795322399
0.9127976414
0.8452308558
0.8564296535
0.8345621085
0.8639266593
0.8655235401
0.8329416426
0.8312169069
0.8518578932
0.8446873813
0.8580792901
0.8351774090
0.8624317412
0.9128340013
0.8368562439
0.8540884233
0.9130439452
0.8542865936
0.8590581145
0.9159241076
0.8485152381
0.8341227252
0.8584147887
0.9161213874
0.8380694052
0.8337155951
0.8403375072
0.8580348567
0.8537009295
0.8360114427
0.9123891893
0.8407920207
0.9116333231
0.8336169962
0.8473209289
0.9042522350
0.9168013117
0.9142588150
0.8366103600
0.8994713977
0.8603976109
0.8443157438
0.9077002259
0.8276467339
0.9149351913
0.8263441726
0.9126684109
0.8333045430
0.8311552418
0.8273308257
0.8504791135
0.8308319025
0.8291890928
0.9149482963
0.8269369531
0.9191359112
0.9022838548
0.8284965614
0.9097112840
0.9172695022
0.9156339004
0.8291594064
0.8933735740
0.9070593598
0.9182730486
0.8290187426
0.8300641697
0.9195824324
0.8279704790
0.9151856654
0.8897110286
0.8265694206
0.8965951217
0.8245930413
0.8266513983
0.9173378424
0.8306490444
0.8819035126
0.9190836327
0.8538426305
0.9196012217
0.9219432234
0.8862804467
0.8265061337
0.9190784719
0.9227052604
0.8737453354
0.8266197953
0.9207353087
0.8784141325
0.8268191907
0.8263424318
0.9162704221
0.8654242152
0.8702004014
0.8244916090
0.9227245031
0.8499501152
0.9221091264
0.8258259912
0.8568279349
0.9187382798
0.9059731047
0.9125332646
0.8615695658
0.8957895025
0.8732620751
0.9208481017
0.9176483651
0.9197861199
0.9095399018
0.8648515702
0.9014082859
0.9171127591
0.8814122797
0.9197143279
0.8530972049
0.8280490394
0.8890409877
0.8307464561
0.8447955413
0.8236720231
0.8259520988
0.8372810880
0.8482188950
0.8271062474
0.8248897132
0.8291204071
0.8413457910
0.8237616855
0.8240728057
0.8334081323
0.8687400062
0.9033625530
0.9207636222
0.8920271220
0.8686455724
0.9107402156
0.9176175851
0.8923546364
0.9110638298
0.9040397545
0.9180809185
0.8770245322
0.9074892377
0.9157421164
0.8982071652
0.8770365864
0.9162832227
0.8604133646
0.8603284001
0.9186427015
0.8987176015
0.9080860627
0.9197884980
0.8286710033
0.8848710267
0.8399636890
0.8327492271
0.8269412267
0.8407967986
0.8232034804
0.8222444607
0.8478070846
0.8229468383
0.8248337621
0.8238382605
0.8850076495
0.8268433323
0.8331632669
0.8303538599
0.8441582374
0.8361150425
0.8294169995
0.8255121730
0.8442416801
0.8258464098
0.8222702034
0.8227543844
0.8225580897
0.8243393808
0.8276726254
0.8370091827
0.9005764992
0.9167993002
0.9162152479
0.9008354775
0.8646855182
0.9087407866
0.9091752342
0.8886136717
0.8653613272
0.8883155742
0.9051135993
0.9141232930
0.9186499946
0.9171286244
0.9055115868
0.8728114715
0.8573830735
0.8565899992
0.8950610671
0.8733878225
0.8950580621
0.9145958923
0.8365871588
0.8290651703
0.8290090560
0.8212933898
0.8445083659
0.8215367844
0.8247331858
0.8811998161
0.8238801863
0.8206561552
0.8807821907
0.8235603391
0.8360331092
0.8216676547
0.8215742666
0.8324676823
0.8322897410
0.8258928369
0.8211972160
0.8264305871
0.8239964575
0.8234342449
0.8208293249
0.8206448789
0.8412266387
0.8221986486
0.8400265951
0.8216046942
0.8977272330
0.8148829054
0.8858071674
0.8635909798
0.8849391854
0.9150803579
0.8618168680
0.9065876716
0.8979928209
0.9068411441
0.9144968600
0.8129899153
0.8297117365
0.8560461095
0.8147448681
0.9027566318
0.9127565812
0.8124796327
0.8922799843
0.8242390330
0.8711879283
0.8917402093
0.8121494458
0.8128290772
0.8114106535
0.9171331576
0.8698199686
0.8541727206
0.9027264411
0.8428405060
0.8341941479
0.8204752414
0.9152563912
0.8161673604
0.8105174394
0.9122952137
0.8189042522
0.8213792263
0.8206977627
0.8197639455
0.9073395110
0.8190882531
0.8344658786
0.8426308231
0.8206070963
0.8195556605
0.8786711638
0.8188008125
0.8775333341
0.8327790407
0.8254615323
0.8261981907
0.8883521793
0.8189123942
0.8400177083
0.8228680997
0.8578868677
0.8189666085
0.8193121289
0.9051650474
0.8992003656
0.8961365523
0.8718600730
0.8296601156
0.8206218336
0.8779583982
0.8207172587
0.8650644750
0.8194949427
0.8188580547
0.8372239542
0.8289284296
0.8834931945
0.8231027559
0.8358337512
0.8153448675
0.8297996112
0.8950635597
0.8134786501
0.8152375775
0.8826020553
0.8133828435
0.8298413251
0.8436823037
0.8507007068
0.9044468452
0.8128156534
0.8112655261
0.8184205574
0.8156246087
0.9131278752
0.8108011966
0.8607363264
0.8246993876
0.8100918971
0.8134913711
0.8105927977
0.8197983642
0.8171794400
0.8062204214
0.8150985648
0.8157466205
0.8443882255
0.8299635694
0.8144176516
0.9001871710
0.8082876212
0.8350579920
0.8891762808
0.8252661464
0.8238241061
0.8163867061
0.8090153503
0.8122735965
0.8157164554
0.9152624215
0.8354882394
0.8680974389
0.8507020470
0.8067177189
0.8082186433
0.8192978980
0.8072801204
0.9107294453
0.8535407557
0.8930286794
0.8177086287
0.8753585159
0.8185265558
0.8214376245
0.8309852324
0.8677960903
0.9023000795
0.8179464579
0.8812898460
0.8176052824
0.8678446472
0.8419969214
0.8230492696
0.8038093911
0.8860894018
0.9110508821
0.9056597110
0.9039243550
0.8539855324
0.8981078353
0.8176338508
0.8023201968
0.8034390699
0.8177087515
0.9017975241
0.8202723489
0.8992634995
0.8300595828
0.8359805765
0.8016990189
0.9086511844
0.9051772852
0.8925460025
0.8874339465
0.8007242107
0.8177511739
0.9030854993
0.8087716589
0.8052402054
0.8906764060
0.8961457963
0.8718628133
0.8746815345
0.8268257464
0.9131716784
0.8471554913
0.8234035358
0.9017869758
0.8608954780
0.8135761180
0.8813004002
0.8448597966
0.9110586220
0.8110780803
0.8367763651
0.9107197097
0.8834547883
0.8609055865
0.8240570027
0.8300434428
0.8128098321
0.8944421189
0.8075104027
0.9038238891
0.8185524390
0.8525624534
0.8636627071
0.8102763915
0.8930393803
0.8152845085
0.9027298457
0.9023095549
0.8749421348
0.9086589347
0.8874445596
0.9131792988
0.8525616730
0.8539939019
0.8817296719
0.8976530703
0.9126976022
0.8913429160
0.8892403111
0.9037188709
0.8678554280
0.8870062350
0.8996840736
0.8074730409
0.8949186200
0.8989471686
0.8596936656
0.9084809323
0.8514836146
0.8567220104
0.9011904794
0.8083221460
0.8083301212
0.8705217388
0.9024291866
0.8082101481
0.8981179562
0.8676182753
0.8150952417
0.8746922893
0.8214364774
0.8175596842
0.8157208583
0.8771561744
0.8235913193
0.8071290466
0.8180301454
0.8298394013
0.9089370320
0.8423356469
0.8372864536
0.8135706596
0.8715377461
0.8890650154
0.8163837486
0.8087670493
0.9027841026
0.8300457096
0.9014505262
0.8157435403
0.8153434634
0.8252641702
0.9018077874
0.8156280443
0.8770495321
0.8945246673
0.8681499296
0.9016111351
0.8354880063
0.8648405664
0.9105966690
0.8018791968
0.8807281757
0.8601570191
0.8778695200
0.8032569874
0.8938001910
0.8184193958
0.8997661912
0.8892065537
0.8021172240
0.8152285923
0.8981988755
0.8940447709
0.9043772581
0.8027816323
0.9014936283
0.8372847245
0.8979385022
0.8172996903
0.9027402762
0.8771652375
0.8636711297
0.8944528664
0.8080396915
0.8432969538
0.9068288164
0.9107290516
0.8837345582
0.8996537602
0.7984857433
0.9084906857
0.9026677851
0.8892075337
0.9012333829
0.9013768457
0.8567289062
0.8834640016
0.8705307320
0.8989580705
0.8021730480
0.7971941626
0.8079615890
0.8233256516
0.9127067248
0.8946927684
0.8831653826
0.8700435915
0.8028559577
0.8046070211
0.8596934041
0.8976062920
0.8018149862
0.9000833612
0.8873126072
0.9071733640
0.8996278458
0.8976706401
0.8763191601
0.8634398144
0.8892502222
0.8056211044
0.8919710941
0.9087959285
0.9026328528
0.8121355771
0.7996117971
0.7964563224
0.8100011802
0.8975562625
0.8820869951
0.9051355907
0.8960745906
0.7985701776
0.7974750565
0.8749430009
0.8987850401
0.8825188492
0.9025749538
0.8016393752
0.9023707109
0.9023505969
0.7933738539
0.7949656963
0.8875821323
0.8932295457
0.8002857203
0.8975708702
0.9008727368
0.9020301411
0.7966754363
0.7945092603
0.7946634099
0.8997942734
0.9010975865
0.8997599119
0.9015269207
0.9020907467
0.7978537668
0.7954010698
0.8045168986
0.8008693515
0.8975570329
0.7935833320
0.7912731593
0.9000724674
0.7972003136
0.8002622675
0.8982050678
0.7914614312
0.8949240468
0.7945821950
0.9018637006
0.9006736516
0.7924412107
0.9014988758
0.7932162517
0.7951997207
0.9024385023
0.7964620775
0.9023939373
0.9012575228
0.7984361872
0.7991087184
0.9055167026
0.9022345418
0.9024275144
0.9024635934
0.9022688951
0.9035851295
0.9017856721
0.9066455243
0.9065469558
0.9000586411
0.9013979838
0.8992679881
0.9000829493
0.9044521456
0.9063560295
0.9023620460
0.9096591870
0.9065718615
0.9036051669
0.9078833310
0.9093280274
0.9047938341
0.9002480534
0.9036075608
0.9096655062
0.9080390247
0.9016771136
0.9068737919
0.9103949555
0.9051571047
0.9103995028
0.9059924065
0.9057072674
0.8988983095
0.9055138956
0.9023785183
0.9096785802
0.9085134441
0.9079122257
0.9000371967
0.9029247831
0.9004174489
0.9005871642
0.8961177225
0.8816239941
0.9036118450
0.9072122791
0.8989214763
0.8798850134
0.9016868949
0.9080582841
0.8978233719
0.9082586618
0.9071469192
0.8989160085
0.8992013646
0.8825033686
0.9040722984
0.8945256068
0.9060228584
0.8975371223
0.9024246577
0.9011922537
0.8796853491
0.8841679858
0.9055369466
0.8945754658
0.8955863870
0.8969582145
0.8828868269
0.8973599508
0.8974144707
0.8884154935
0.8845010053
0.8975594801
0.8900732685
0.9101967815
0.8816836526
0.8859359407
0.8864015825
0.9006245905
0.8948468943
0.8825094765
0.8369700325
0.8443235404
0.9012350546
0.8945416676
0.8916100265
0.8797204952
0.8948165667
0.8899745247
0.8954794311
0.8844983438
0.8879018658
0.8410057899
0.8445914567
0.8811739083
0.8923379352
0.8922868221
0.8859491837
0.8790785989
0.8761627087
0.8937930619
0.8643590973
0.8740772883
0.8891847992
0.8909476486
0.8726709993
0.8836033786
0.8880541110
0.8900876131
0.8632956507
0.8864109752
0.8852403165
0.8760712869
0.8711231483
0.8638584485
0.8691765739
0.8845652202
0.8924887702
0.8677763211
0.8901139609
0.9102155801
0.8718175888
0.8916275286
0.8845079281
0.8728090077
0.8812005982
0.8483513941
0.8819015630
0.8395679655
0.8367251441
0.8916870777
0.8442902257
0.8871259846
0.8713848814
0.8479310647
0.8776610877
0.8369341489
0.8396622556
0.8641043800
0.8675937415
0.8925493690
0.8596315103
0.8638286484
0.8730844272
0.8779456799
0.8740719161
0.8711764370
0.8872239194
0.8790826750
0.8901243359
0.8821958110
0.8887973284
0.8688352832
0.8726729292
0.8633003454
0.8945719473
0.8725447837
0.8680785289
0.8836656879
0.8688195875
0.8761611869
0.8735497177
0.8691742329
0.8759400305
0.8881159773
0.8587159667
0.8483152355
0.8795252455
0.8755397405
0.8776682907
0.8790180150
0.8819044581
0.8547655753
0.8421695656
0.8551959724
0.8519986750
0.8748868953
0.8295027319
0.8426386404
0.8829963136
0.8763096917
0.8588012756
0.8676919046
0.8781149015
0.8395307829
0.8511072370
0.8452504683
0.8728588104
0.8277789745
0.8725572900
0.8639343947
0.8312461033
0.8596401379
0.8680675389
0.8518773460
0.8822003284
0.8678234671
0.8328141052
0.8779443079
0.8625306646
0.8872846838
0.8464714115
0.8712267285
0.8329738233
0.8655028947
0.8688397969
0.8551585836
0.8277574065
0.8685528672
0.8588042891
0.8658902682
0.8542903658
0.8593808784
0.8830044999
0.9130801526
0.8781166805
0.8519736517
0.8758736937
0.8735532839
0.8509476455
0.8279113041
0.8544771077
0.8624357700
0.8799157467
0.8421402333
0.9130317384
0.8500606020
0.8790752405
0.8464515183
0.8580058514
0.8350549879
0.9120085008
0.8341493201
0.8533934833
0.8435271180
0.8583657509
0.8640188807
0.8312030664
0.8340503891
0.8296824207
0.8480030074
0.8376365573
0.8756879239
0.8485431936
0.8584403034
0.8327821627
0.8337292273
0.8614936341
0.8315269834
0.8348180263
0.8685506083
0.9130908886
0.8593476187
0.8402772617
0.9123765956
0.8408146353
0.8537399179
0.9128096934
0.8531749752
0.8603513183
0.8373202638
0.9142482608
0.8494856040
0.9120164322
0.8340340578
0.8446564318
0.8345337930
0.9103297774
0.8756928175
0.8434999755
0.8580618432
0.9149247760
0.8350188828
0.8366251053
0.9166964300
0.8351616106
0.8533769071
0.8443328547
0.8376118479
0.8564672310
0.9140182133
0.8627156781
0.8373165144
0.8320684260
0.8315120334
0.8402444462
0.9140648866
0.8348830697
0.8320751284
0.8469364957
0.8540526945
0.8347905451
0.8333192522
0.9128468474
0.8439120000
0.8368341589
0.9113087568
0.9126680305
0.8311686132
0.8504816517
0.9103404527
0.9167064434
0.9070507624
0.9156255084
0.8494540396
0.8279565484
0.9140286271
0.9168802305
0.8257992362
0.8417035887
0.8372935164
0.9159340939
0.8380567370
0.9022634773
0.9145004989
0.8591060712
0.8403200711
0.9114848875
0.9097087418
0.8403032157
0.8285035373
0.9161308090
0.8269463817
0.8469305678
0.9116391704
0.8359967607
0.8303451711
0.8422901844
0.8320548490
0.8328433407
0.8336029783
0.8279829122
0.9103135105
0.9144288026
0.8473144068
0.9113221556
0.8373020769
0.9140644523
0.8320539726
0.8627625709
0.8438997306
0.8290282367
0.8410768141
0.8348699545
0.8300782078
0.9151818357
0.8263367834
0.9190789514
0.8472730819
0.9145117557
0.9168886549
0.8296080723
0.8286863100
0.8271700217
0.8995025833
0.8276404627
0.9077080808
0.9173351468
0.8257945780
0.9114973394
0.8416945529
0.9185314694
0.9168542941
0.8306579141
0.8402907827
0.8965613410
0.8435655520
0.9042711526
0.8279463906
0.9183630669
0.9190687410
0.8308207602
0.8291761291
0.9144310794
0.8464769206
0.8303333457
0.9132223919
0.9103262282
0.8422897020
0.9195904462
0.8328287056
0.8273164938
0.9149539507
0.8410643842
0.8862279625
0.8510224616
0.8268295407
0.8934186544
0.9183695684
0.8295941161
0.8263552949
0.9185331326
0.8271587958
0.8435553239
0.8270360891
0.9199587090
0.8286742517
0.8472934634
0.9177466135
0.8266315593
0.8378127532
0.9172316367
0.8291493015
0.8783631467
0.8253831302
0.9191415629
0.8499066595
0.8259436101
0.9195923963
0.9221006331
0.8897572137
0.8258353343
0.8465052472
0.9182832359
0.9227160496
0.9132329689
0.8701531843
0.8258130369
0.8266401275
0.9169124884
0.9199662110
0.9177547280
0.9208398147
0.8253779541
0.8270294157
0.9181727540
0.8257094265
0.8819525647
0.8377987420
0.8265591327
0.8510649191
0.9216482887
0.9222144456
0.8245845987
0.9176471032
0.8615258349
0.8737899337
0.8248950265
0.8259341517
0.9227144431
0.8258037954
0.8254607186
0.8250346278
0.8538860410
0.9219521538
0.8264952310
0.8530632068
0.9180736364
0.9040328512
0.9155498957
0.9110665377
0.8654637187
0.9222254347
0.8561509684
0.9200653942
0.8923261456
0.9150637332
0.9169139654
0.8687070089
0.9207440132
0.9213990729
0.8256938530
0.9162700790
0.9202895319
0.9080851844
0.9138801719
0.8603854218
0.8987007809
0.9162823895
0.8769875319
0.9216577752
0.9207722989
0.9181750539
0.8241894606
0.8520639049
0.8568612491
0.8254527714
0.8276929015
0.8849707243
0.8250269810
0.8303651069
0.8442068491
0.8227593867
0.8258866776
0.8248586780
0.8369869450
0.8477894050
0.8268848583
0.8244853347
0.8286907635
0.8407592312
0.8229495791
0.8240764588
0.8232132948
0.8331599902
0.8733017708
0.9008290783
0.9134676214
0.9197133472
0.8882932176
0.8646621050
0.9150625043
0.8561831754
0.9155498118
0.9192282506
0.8521033052
0.9091772718
0.9167959515
0.9200705523
0.8958146489
0.9125319828
0.9059794020
0.9187451583
0.8814529519
0.9055102579
0.9145949791
0.9213996779
0.8950440710
0.8727848532
0.9171150450
0.8648880380
0.8565673058
0.9121137709
0.9193277826
0.9014231154
0.9138787872
0.9095413021
0.9202772293
0.8290955319
0.8807550094
0.8484808084
0.8400210172
0.8322613706
0.8264259254
0.8413838723
0.8240581146
0.8240642208
0.8212007626
0.8482451780
0.8237563410
0.8231742943
0.8240013187
0.8234730583
0.8890770097
0.8241851843
0.8270602629
0.8333994177
0.8307236625
0.8444496326
0.8360047524
0.8290475895
0.8247328213
0.8448414664
0.8259144560
0.8248422521
0.8212942978
0.8520931142
0.8236697430
0.8215759576
0.8239031860
0.8221826952
0.8280214852
0.8372953846
0.8977196533
0.9116511121
0.9176236408
0.9192313858
0.9150763853
0.9033675769
0.8686758286
0.8497317261
0.9068397963
0.8521302879
0.9107385139
0.8849226137
0.8617991809
0.8920463192
0.9134667122
0.9027525925
0.9127546708
0.9193351867
0.9181672385
0.9074900876
0.8770672535
0.8541590697
0.9101111789
0.8603562204
0.9121118226
0.8917280817
0.8698008630
0.8982182656
0.9157431253
0.8372289882
0.8294270014
0.8289101983
0.8222682900
0.8441847848
0.8206413431
0.8255024205
0.8775141651
0.8243008873
0.8221777696
0.8212255664
0.8194940488
0.8468881544
0.8848982604
0.8228578858
0.8361535143
0.8207109616
0.8225504415
0.8327678089
0.8327781753
0.8254449590
0.8222422683
0.8484997341
0.8201881056
0.8269370566
0.8248193528
0.8238097569
0.8197610363
0.8195548409
0.8426296684
0.8213684949
0.8399862794
0.8206122725
0.8231642114
0.8134806723
0.8247028036
0.8488270142
0.8133955522
0.9005821874
0.9116514956
0.8135267700
0.8120016116
0.8825893319
0.8278566798
0.8607225835
0.8886283894
0.8134208335
0.8128210160
0.8125998194
0.9162187720
0.8653834805
0.8497385011
0.9044409401
0.8950541982
0.9087412947
0.8358343980
0.8414114767
0.8171890505
0.9131222747
0.8182923504
0.8115623647
0.9096937155
0.8144901670
0.8279619828
0.8535286896
0.8150002799
0.9051164614
0.9141255904
0.8136060356
0.8107691470
0.8891652240
0.8225332471
0.8680832016
0.8950705811
0.8117517844
0.8138070243
0.8128111440
0.9181722290
0.8734108402
0.8574030662
0.9079201614
0.9001795893
0.9101114572
0.8405655193
0.8363236630
0.8192203343
0.9166553710
0.8150403201
0.8116145750
0.9107249676
0.8847106798
0.8176313394
0.8465666451
0.8222076313
0.8665551715
0.8192135176
0.8202664432
0.8208257559
0.9056479502
0.9060471943
0.8975588231
0.8177191629
0.8992548945
0.8798617419
0.8359832346
0.8201771359
0.8412502386
0.8730062728
0.8215927166
0.8589762783
0.8206453227
0.8753447475
0.8177419351
0.8812202049
0.8324889211
0.8259102067
0.8897898182
0.8268203398
0.8906701212
0.8177054958
0.8419958611
0.8235687207
0.8601569208
0.8179482138
0.8185213719
0.8212206430
0.9068583986
0.9069766865
0.9003500613
0.8180419699
0.8977084423
0.8745860788
0.8309862191
0.8215066605
0.8469017681
0.8807243514
0.8216689959
0.8677949469
0.8206533311
0.8176131432
0.8365847948
0.8290330285
0.8860842928
0.8230417623
0.8337630634
0.8075664357
0.8162263535
0.8169494948
0.8367789430
0.8278538794
0.8240613311
0.8169232992
0.8980005921
0.8148797678
0.8099891546
0.8165998674
0.8148832243
0.8428083820
0.8858189472
0.8140054147
0.8283457273
0.8414111097
0.8230354684
0.8482025957
0.8280880732
0.9065922209
0.8140750568
0.8125970342
0.8185205287
0.8083332184
0.8140128979
0.8102732477
0.8169827615
0.9145021788
0.8399281756
0.8115516021
0.8636070988
0.8428412386
0.8436832428
0.8074794640
0.8083363695
0.8230308721
0.8152929205
0.8088627825
0.8134111561
0.8119956324
0.8069429877
0.9096972324
0.8488401851
0.8182849624
0.8168873753
0.8112669847
0.8297099006
0.8069500584
0.8162490553
0.8108141671
0.8168451689
0.8421974565
0.8341925076
0.8279864524
0.8129563767
0.9027327119
0.8135262447
0.8087537630
0.8154164731
0.8371077919
0.8922892651
0.8128206153
0.8240258819
0.8494214709
0.8494216153
0.8220059584
0.9079244543
0.8129841691
0.8124770076
0.8168922131
0.8095241217
0.8113449720
0.8170374002
0.9166612522
0.8336409415
0.8198035724
0.8121400104
0.8712046088
0.8482049300
0.8080456847
0.8094713943
0.8204706146
0.8175875312
0.8090930257
0.8150280194
0.8116098022
0.8058519373
0.9122992505
0.8560611826
0.8225282297
0.8147309793
0.8958178492
0.8189136268
0.8027879938
0.8032658487
0.8180332556
0.8786860692
0.9039355663
0.8193245747
0.8977169564
0.8235951103
0.8209134272
0.8296638631
0.8650656510
0.8018882001
0.9077218410
0.9060589354
0.9045090150
0.8189606903
0.8936108463
0.8841096130
0.8018234491
0.8188511948
0.9025560291
0.8110417580
0.8040462059
0.8847171847
0.8992104205
0.8663296738
0.8663323535
0.8703036411
0.8400113985
0.8231132505
0.8047541166
0.8834990118
0.8735680343
0.9126189114
0.9073515210
0.8423334049
0.8280993712
0.9044005220
0.9013460158
0.8559591082
0.9044755340
0.8098709398
0.9005787373
0.8189013379
0.8021247097
0.8043706207
0.8190777753
0.9032771734
0.8207059718
0.9003596393
0.8281136808
0.8344534603
0.8735694935
0.8028653305
0.9103541511
0.9069890137
0.9057865564
0.8192039847
0.8945173117
0.8902965636
0.8017698358
0.8188067993
0.9044116749
0.8073547840
0.8052606869
0.8883593329
0.8975689224
0.8745885314
0.8896201899
0.8773726542
0.8465756250
0.8262069267
0.8042628519
0.8897954724
0.9147884898
0.9068707327
0.9006675525
0.8490081500
0.8215145142
0.9054420203
0.9025457334
0.8630992309
0.8119556460
0.8685941023
0.9077284955
0.8841197471
0.8428063656
0.9126260576
0.8099834137
0.8443865493
0.8490148956
0.8883111624
0.8346709270
0.9003527927
0.9089911132
0.8962349297
0.8099042893
0.8812340514
0.8223797393
0.9048943284
0.8631108023
0.8822915818
0.8223749751
0.8192129824
0.8280842708
0.8982382843
0.8140799697
0.8136089316
0.8448612907
0.8405670035
0.8098985517
0.8919590647
0.8920763886
0.8075589732
0.8138037452
0.8530721705
0.9034301496
0.8337635931
0.9058814149
0.8169173675
0.8161572677
0.8504155969
0.8599274991
0.8105988248
0.8498174121
0.9018705399
0.8148832247
0.8058312234
0.8363218956
0.8104550303
0.8063940936
0.8619651235
0.9021259600
0.8104604749
0.8092256631
0.8958275393
0.8758087660
0.8139533883
0.9005984790
0.9045174806
0.8105084288
0.8765749179
0.9103609542
0.8903062709
0.8511187338
0.9147961238
0.8129498283
0.8504144469
0.8185576673
0.8559687215
0.8830094432
0.8299601914
0.8989820528
0.9109784475
0.8932256877
0.8869218724
0.9042408295
0.8703157598
0.8888195665
0.8298023031
0.8192923621
0.8350550363
0.9006669929
0.8114072336
0.8075248514
0.8088569757
0.8965586687
0.8966652746
0.8082746187
0.8614230709
0.9024931736
0.9067435120
0.8220011692
0.8064014736
0.8511197917
0.8532429882
0.8550837617
0.9018560442
0.8069422297
0.8072731647
0.8686363333
0.9028998654
0.8090135495
0.8069347621
0.9005880947
0.8693034562
0.8122714765
0.9039154497
0.9057943525
0.8162445034
0.8773839678