<VTKFile type="UnstructuredGrid" version="0.1">
	<UnstructuredGrid>
		<Piece NumberOfPoints="1862" NumberOfCells="3498">
			<CellData>
				<DataArray type="Int32" Name="type" NumberOfComponents="1" Format="ascii">
0
0
0
0
0
0
0
0
0
0
0
0
0
0
0
0
1
0
0
1
0
0
0
0
0
0
0
0
0
0
0
0
0
1
0
0
0
0
0
0
0
0
0
0
0
0
0
0
0
0
1
0
0
0
0
0
0
0
0
0
0
1
0
0
0
0
0
0
0
0
0
0
0
0
0
0
0
0
0
0
0
0
0
0
0
0
0
0
0
0
0
0
0
0
0
0
0
0
0
0
0
0
0
0
0
0
0
0
0
0
0
0
0
0
0
0
0
0
0
0
0
0
0
1
0
0
0
0
0
0
0
0
0
0
0
0
0
0
0
0
0
0
0
0
0
0
0
0
0
0
0
1
0
1
1
0
0
0
0
0
0
0
0
0
0
0
0
0
1
0
1
0
0
0
0
1
0
0
0
0
0
0
0
0
1
1
0
0
0
0
0
1
0
0
0
0
0
0
0
0
1
0
0
0
0
0
0
0
0
0
0
0
0
0
0
0
0
0
0
0
0
0
0
0
0
0
0
0
0
0
0
0
0
1
0
0
0
0
0
0
0
0
0
0
0
0
0
0
0
0
0
0
0
0
0
0
0
0
0
0
0
0
0
0
0
0
0
0
0
0
0
0
0
0
0
0
0
0
0
0
0
1
0
0
0
0
0
0
0
0
0
0
0
0
0
0
0
0
0
0
0
0
0
0
0
0
0
0
0
0
0
0
0
0
0
0
0
0
0
0
0
0
0
0
0
0
0
0
0
0
0
0
1
0
0
0
0
0
0
0
0
0
0
0
0
0
0
0
0
0
0
0
0
0
0
0
0
0
0
0
0
0
0
0
0
0
0
0
0
0
0
0
0
0
0
0
0
0
0
0
0
0
0
0
0
0
0
0
0
0
1
0
0
0
0
0
0
0
0
0
0
0
0
0
0
0
0
0
0
0
0
0
0
0
0
0
0
0
0
0
0
0
0
0
0
0
0
0
0
0
0
0
0
0
0
0
0
0
0
0
0
0
0
0
0
0
0
0
0
0
0
0
0
0
0
0
0
0
0
0
0
0
0
0
0
0
0
0
0
0
0
0
0
0
0
0
0
0
0
0
0
0
0
0
0
0
0
0
0
0
0
0
0
0
0
0
0
0
0
0
0
0
0
0
0
0
0
0
0
0
0
0
0
0
0
0
0
0
0
0
0
0
0
1
0
0
0
0
0
0
0
0
0
0
0
0
0
0
0
0
0
0
0
1
0
0
0
0
0
0
0
0
0
0
0
0
0
0
0
0
0
0
0
0
0
0
0
0
0
0
0
0
0
0
0
0
0
0
0
0
0
0
0
0
0
0
0
0
0
0
0
0
0
0
0
0
0
1
0
0
0
0
0
0
0
0
0
0
0
0
0
0
0
0
0
0
0
0
0
0
0
1
0
0
0
0
0
0
0
0
0
0
0
0
0
0
0
0
0
0
0
1
0
0
0
1
0
0
0
0
0
0
0
0
0
0
0
0
0
0
0
0
0
0
0
0
0
0
0
0
0
1
0
0
0
0
0
0
0
1
0
0
0
0
0
0
0
0
0
0
0
0
0
0
0
0
0
0
0
0
0
0
0
0
0
0
1
0
0
0
0
0
0
0
1
0
0
0
0
0
0
1
0
0
0
0
0
0
0
0
0
0
0
0
0
0
0
0
0
0
0
0
0
0
0
0
0
0
0
0
0
0
0
0
0
0
0
0
0
0
1
0
0
0
0
0
1
0
0
0
0
0
0
0
1
0
0
0
0
0
0
0
0
0
0
0
0
0
1
0
0
0
0
0
0
0
0
0
0
0
0
0
0
0
0
0
0
0
0
0
0
0
0
0
0
0
0
0
0
0
0
0
0
0
0
0
0
0
0
0
0
0
0
0
0
0
0
0
0
0
0
0
1
0
0
0
0
0
0
0
0
0
0
0
0
0
0
0
0
0
0
0
1
0
0
0
0
0
0
0
0
0
1
0
0
0
0
0
0
0
0
0
0
0
0
0
0
0
0
0
0
0
0
0
0
0
0
0
0
0
0
0
1
0
1
0
0
0
0
0
0
0
0
0
0
0
0
0
0
0
0
0
0
0
0
0
0
0
0
0
0
0
1
0
0
0
1
0
0
0
0
0
0
0
0
0
0
0
0
0
0
0
0
0
0
0
0
0
0
0
0
0
0
0
0
1
0
0
0
0
0
0
0
0
0
0
0
0
0
0
0
0
0
0
0
0
0
0
0
0
0
1
0
0
0
0
0
0
0
0
0
0
0
0
0
0
0
0
0
0
0
0
0
0
0
1
0
0
0
0
0
0
1
0
0
0
0
0
0
0
0
0
0
0
1
0
0
0
0
0
0
0
0
0
0
0
0
0
0
0
0
0
0
0
0
1
0
0
0
0
0
0
0
0
0
0
0
1
0
0
0
0
0
0
0
0
0
0
0
0
0
0
0
0
0
0
0
0
0
1
0
0
0
0
0
0
0
0
0
1
1
0
1
0
1
0
0
0
0
0
0
0
0
0
0
0
1
0
0
0
0
0
1
1
0
0
0
0
0
0
1
0
0
0
0
0
1
1
1
0
0
0
0
0
0
0
0
0
0
0
0
1
1
0
0
1
0
0
0
0
0
1
0
0
0
1
0
1
0
0
0
0
0
0
0
1
0
0
0
0
0
0
0
1
0
0
1
0
0
0
0
0
0
0
0
0
0
0
0
0
0
0
1
0
0
0
0
0
0
0
0
0
0
0
0
0
0
0
0
0
0
0
0
0
0
0
0
0
0
0
0
0
0
0
0
0
0
0
0
1
0
0
0
0
0
0
1
0
0
0
1
0
0
0
0
0
0
0
0
0
0
0
1
0
0
0
0
0
0
0
0
0
0
0
0
0
0
0
0
0
0
0
0
0
0
0
0
0
0
0
0
0
0
0
0
0
0
0
0
0
0
0
0
1
1
0
0
0
0
0
0
0
0
0
0
0
0
0
1
0
0
0
0
0
0
0
0
0
0
0
0
0
0
0
0
0
0
0
0
0
0
0
0
0
0
0
0
0
0
0
0
0
0
0
0
0
0
0
0
0
0
0
0
0
0
0
0
0
0
0
0
0
0
0
0
0
0
0
0
0
0
0
0
0
0
0
0
0
0
0
0
1
1
0
0
0
0
0
0
0
0
1
0
0
0
0
0
0
0
0
0
0
0
0
0
0
0
0
0
0
0
0
0
0
0
1
0
0
0
0
0
0
0
0
0
0
0
0
0
0
0
0
1
0
0
0
0
0
0
0
0
0
0
0
0
0
0
0
0
0
0
0
0
0
0
0
0
0
0
0
0
0
0
0
0
0
0
0
0
0
0
0
0
0
0
0
0
0
0
0
0
0
0
0
0
0
0
0
0
0
0
0
0
0
0
0
0
0
0
0
0
0
0
0
0
0
0
0
0
0
0
0
0
0
0
0
0
0
0
0
0
0
0
1
1
0
0
0
0
0
1
0
0
0
0
0
0
0
0
0
0
0
0
1
0
0
0
0
0
0
0
0
0
0
0
0
0
0
0
0
0
0
0
0
0
0
0
0
0
0
0
0
0
0
0
0
0
0
0
0
0
0
0
0
0
0
0
0
0
0
0
0
0
0
0
0
0
1
0
1
0
0
0
0
0
0
0
0
0
0
0
0
0
0
0
0
0
0
1
0
0
0
0
0
0
0
0
0
0
0
0
0
0
0
0
0
0
0
0
0
0
0
0
0
0
0
0
0
0
0
0
0
0
0
0
0
0
0
0
0
0
0
0
0
0
0
0
0
0
0
0
0
0
0
0
0
0
0
0
0
0
0
0
0
0
0
0
0
0
1
0
0
0
0
0
0
0
0
0
0
1
0
0
0
0
0
0
0
0
0
0
0
0
0
0
0
0
0
0
0
0
0
0
0
0
0
0
0
0
0
0
0
0
0
0
0
0
0
1
0
0
0
0
0
0
0
0
0
0
0
0
0
0
0
0
0
0
0
0
0
0
0
0
0
0
0
0
0
0
0
0
0
0
0
0
0
0
0
0
0
0
0
0
0
0
0
0
0
0
0
0
0
0
0
0
0
0
0
0
0
0
0
0
0
0
0
0
0
0
0
0
0
0
0
0
0
0
0
0
0
1
0
0
0
0
0
0
0
0
0
0
0
0
0
0
0
0
0
0
0
0
0
0
0
0
0
0
0
0
0
0
0
0
0
0
0
0
0
0
0
0
0
0
0
0
0
0
0
0
0
0
0
0
0
0
0
0
0
0
0
0
0
0
0
0
0
0
0
0
0
0
0
0
0
0
0
0
0
0
0
0
0
0
0
0
0
0
0
0
0
0
0
0
0
0
0
0
0
0
0
0
0
0
0
0
0
0
0
0
0
0
0
0
0
0
0
0
0
0
0
0
0
0
0
1
0
0
0
0
0
0
0
0
0
0
0
0
0
0
0
0
0
0
0
0
0
0
0
0
0
0
0
0
0
0
0
0
0
0
0
0
0
0
0
0
0
0
0
0
0
0
0
0
0
0
0
0
0
0
0
0
0
0
0
0
0
0
0
0
0
0
0
0
0
0
0
0
0
0
0
0
0
0
0
0
0
1
0
0
0
0
0
0
0
1
0
0
0
0
0
0
0
0
0
0
0
0
0
0
0
0
0
0
0
0
0
0
0
0
0
0
0
0
0
0
0
0
0
0
0
0
0
1
0
0
0
0
0
0
0
0
0
0
0
0
0
0
0
0
0
0
0
0
0
1
0
0
0
0
0
0
0
0
0
0
0
0
1
1
0
0
0
0
0
0
0
0
0
0
0
0
0
0
0
1
1
0
1
0
0
0
0
0
0
0
0
0
1
0
0
0
0
0
0
1
0
0
0
0
0
0
0
0
0
0
1
0
0
0
0
1
0
1
0
0
0
0
0
0
0
1
0
0
0
1
0
0
0
1
0
1
1
0
0
1
1
0
0
0
1
0
0
0
1
0
0
0
0
0
0
0
0
0
1
0
0
0
0
0
0
1
0
0
0
0
0
0
0
0
0
0
0
0
0
0
0
0
0
0
0
0
0
0
0
0
0
0
0
1
0
0
1
0
0
0
0
0
0
0
0
0
0
0
0
0
0
0
0
0
0
1
0
0
1
0
0
0
0
0
0
0
0
0
0
0
1
0
0
1
0
0
0
0
0
0
0
0
0
0
0
1
1
0
0
0
0
0
0
0
0
0
0
0
0
1
0
0
0
0
0
0
0
0
0
0
0
0
0
0
0
0
0
1
0
0
0
0
0
0
0
0
0
0
0
0
0
0
0
0
0
1
0
0
0
0
0
0
0
0
0
0
0
0
0
0
0
0
0
0
0
0
0
0
0
0
0
0
0
0
0
0
0
0
0
0
0
0
0
0
0
0
1
0
0
0
0
0
0
0
0
0
0
0
0
0
0
0
0
0
0
0
0
0
0
0
0
0
0
0
0
0
0
0
0
0
0
0
0
0
0
0
0
0
0
0
0
0
1
0
0
0
0
0
0
0
0
0
0
0
0
0
0
0
0
0
0
0
0
0
0
0
0
0
0
0
0
0
0
0
0
0
0
0
0
0
0
0
0
0
0
0
0
0
0
0
1
0
0
0
0
0
0
0
0
0
0
1
0
0
0
0
0
0
0
0
0
0
0
0
0
0
0
1
0
0
1
0
0
0
0
0
0
0
0
0
0
0
0
0
0
0
0
0
0
0
0
0
0
0
1
0
0
0
0
0
0
0
0
0
0
0
0
0
0
0
0
0
0
0
0
0
0
0
0
0
0
0
0
0
0
0
0
0
0
0
1
0
0
0
0
0
0
0
0
0
0
0
0
0
0
0
0
0
0
0
0
0
0
0
0
0
0
0
0
0
0
0
0
0
0
0
0
0
0
0
0
0
0
0
0
0
0
0
0
0
0
0
0
0
0
0
0
0
0
0
0
0
0
0
0
0
0
0
0
0
0
0
0
0
0
0
0
1
0
0
0
0
0
0
0
0
0
0
0
0
0
0
0
0
0
0
0
0
0
0
0
0
0
0
0
0
0
0
0
0
0
0
0
0
0
0
0
1
0
0
0
0
0
0
0
0
0
0
0
0
1
1
0
0
0
0
0
0
0
0
0
0
0
0
0
0
0
0
0
0
0
0
0
0
0
0
0
0
0
0
0
0
0
0
0
0
0
0
0
0
0
0
0
0
0
0
0
0
0
0
0
0
0
0
0
0
0
0
0
0
0
0
0
0
0
0
0
0
0
0
0
0
0
0
0
0
0
0
0
0
0
0
0
0
0
0
0
0
0
0
0
0
0
0
0
0
0
0
0
0
0
0
0
1
0
1
0
0
0
0
0
0
0
1
1
1
1
0
0
0
0
0
0
0
0
0
0
0
0
0
0
0
0
0
0
0
0
0
0
0
0
0
0
0
0
1
1
0
0
0
0
0
0
0
0
0
0
0
0
0
0
0
0
0
0
1
0
0
0
0
0
0
0
1
1
0
1
1
0
0
1
0
0
0
0
0
0
0
1
0
1
0
0
0
0
0
0
0
0
0
0
0
0
0
0
0
0
0
0
0
0
0
0
0
0
0
0
0
1
1
0
0
0
1
1
0
0
0
0
1
0
0
1
0
1
0
0
0
0
0
1
0
0
0
1
0
0
0
0
0
0
0
0
0
0
0
0
0
0
0
0
0
0
0
0
0
0
0
0
0
0
0
1
0
0
0
0
0
0
1
0
0
0
0
0
0
0
0
0
0
0
0
0
0
0
0
0
0
0
0
0
0
0
0
0
0
0
0
0
1
0
1
0
0
0
0
0
0
0
1
0
0
0
0
0
0
0
0
0
0
0
1
0
0
0
0
0
0
0
0
0
1
0
0
0
0
0
0
0
1
0
0
0
0
0
0
0
1
0
0
0
0
0
0
0
0
0
0
0
0
0
0
0
0
0
0
0
1
0
1
0
0
0
0
0
1
0
0
0
0
0
0
0
0
0
0
0
0
0
0
0
0
0
0
0
0
0
0
0
0
0
1
0
1
0
0
0
0
0
0
0
0
0
1
0
0
0
0
0
1
0
0
0
0
0
0
0
0
0
0
0
0
0
0
0
1
0
0
0
0
0
0
0
0
1
0
0
0
0
0
0
0
0
0
0
0
0
0
0
0
0
0
0
0
0
0
0
0
0
0
0
0
0
0
0
1
0
0
0
0
0
0
0
0
0
0
0
0
0
0
0
0
1
0
0
0
0
0
0
0
0
1
0
0
0
0
0
0
0
0
0
1
0
0
0
0
0
1
0
0
0
0
0
0
0
0
0
0
0
0
0
0
0
0
0
0
0
1
0
0
0
0
0
0
1
0
0
0
0
0
0
0
0
1
0
0
0
0
0
0
0
0
0
0
0
0
0
0
1
0
0
1
0
0
0
1
0
0
0
0
0
0
0
0
0
0
0
0
0
0
0
0
1
0
0
0
0
0
0
0
0
0
0
1
0
1
0
0
0
0
0
0
1
0
0
0
0
0
0
0
0
0
0
0
0
0
0
0
0
0
0
0
0
0
0
0
0
0
0
0
1
1
0
0
0
0
0
0
1
0
0
0
0
0
0
0
0
0
0
0
0
0
1
0
0
0
0
0
0
0
1
0
0
0
0
0
0
0
0
0
0
0
0
0
0
0
0
0
0
0
0
0
0
0
0
0
0
0
1
0
0
0
0
0
0
0
0
0
0
1
0
0
1
0
0
0
0
0
0
0
0
0
0
0
0
0
0
0
0
0
0
0
0
0
0
0
0
0
0
0
0
0
1
0
0
0
0
0
0
0
1
0
0
0
0
0
0
0
1
0
0
0
0
1
0
0
0
0
0
0
0
0
0
0
0
1
0
1
0
0
0
1
0
				</DataArray>
				<DataArray type="Float64" Name="h" NumberOfComponents="1" Format="ascii">
0.8339943607
0.8340431832
0.8236324100
0.8242246068
0.8265331619
0.8269586170
0.8255479019
0.8290383018
0.8278343849
0.8353517280
0.8247658586
0.8240140712
0.8394761893
0.8271920780
0.8333435192
0.8544488159
0.8211113183
0.8398579014
0.8363824770
0.8226600869
0.8232589507
0.8456298434
0.8342381894
0.8285054059
0.8224066055
0.8639923135
0.8449747769
0.8294874245
0.8309328754
0.8277400102
0.8245544565
0.8326314544
0.8499107225
0.8232844551
0.8363718165
0.8301746192
0.8260800434
0.8368890086
0.8268952712
0.8260043860
0.8296851198
0.8332027064
0.8421102301
0.8326074546
0.8292169216
0.8311133971
0.8355401852
0.8392450756
0.8666689172
0.8555914131
0.8279743553
0.8316155946
0.8318438370
0.8401622416
0.8335948472
0.8456495147
0.8315601978
0.8455660001
0.8503817209
0.8434196652
0.8585979324
0.8550925380
0.8679771023
0.8313799170
0.8321047412
0.8267559673
0.8424374026
0.8574807682
0.8533947145
0.8490459562
0.8485910532
0.8349309324
0.8389103824
0.8463191273
0.8493574725
0.8139279079
0.8478462599
0.8562398773
0.8426772602
0.8204086046
0.8649565537
0.8288390404
0.8827570235
0.8447541014
0.8236380965
0.8136697723
0.8673347592
0.8297212369
0.8569894427
0.8782844680
0.8701008516
0.8164200927
0.8608178276
0.8693178630
0.8192246926
0.8183501553
0.8170035716
0.8238043500
0.8236696206
0.8679759968
0.8794556784
0.8646319887
0.8287494491
0.8406692593
0.8491036478
0.8293003614
0.8069266505
0.8735218480
0.8577898714
0.8244273387
0.8614645138
0.8724207749
0.8642503339
0.8698241217
0.8401336546
0.8789686530
0.8337195311
0.8398310923
0.8752976123
0.8515951429
0.8443174980
0.8230221029
0.8041175350
0.8421948208
0.8634315835
0.8749512173
0.8443296710
0.8506979379
0.8771006112
0.8790460229
0.8752451136
0.8134183021
0.8546966309
0.8786726295
0.8338732972
0.8757840110
0.8756833338
0.8790465700
0.8714114647
0.8621393267
0.8616045652
0.8361756193
0.8756761207
0.8560774786
0.8082883354
0.8733513153
0.8688631542
0.8805210499
0.8435356812
0.8786459826
0.8818502999
0.8792185505
0.8786417463
0.8770469517
0.8695340024
0.8801360780
0.8788650926
0.8587993525
0.8783399671
0.8777677505
0.8639497362
0.8808154771
0.8771393152
0.8684908010
0.8555490699
0.8804645987
0.8490424565
0.8708029077
0.8536625867
0.8779967704
0.8789781538
0.8700746800
0.8771215910
0.8661582912
0.8487650516
0.8744910553
0.8570269853
0.8817627461
0.8758310799
0.8751680676
0.8808608874
0.8388665435
0.8859493236
0.7984715270
0.8748912486
0.8811970558
0.8408026457
0.8761835623
0.8598876086
0.8886629846
0.8274960931
0.8764315075
0.8921450622
0.8309151188
0.8746606325
0.8825707694
0.8870211853
0.8150120054
0.8196460340
0.8766162581
0.8901225621
0.7955174955
0.8842798787
0.8768412265
0.8022933446
0.9122037970
0.8773347223
0.8915963827
0.8075448948
0.8622046023
0.8300527459
0.8846417399
0.8974922683
0.9166476702
0.8843600747
0.8165801465
0.8699322198
0.9071071915
0.8423321932
0.9016591712
0.7959968323
0.8672864191
0.8530479746
0.8370536230
0.7899043519
0.8809725660
0.8828083097
0.8073141512
0.7908478349
0.8773430146
0.8786139310
0.8533518156
0.7957542089
0.8782482748
0.8831893139
0.8209586812
0.8254620271
0.8858649246
0.9063861378
0.8679069141
0.8302931984
0.9024168170
0.9233929466
0.8618822054
0.8933278022
0.8789262174
0.9154454929
0.8390071782
0.8939917004
0.9189812565
0.8773849323
0.8442410867
0.9094005280
0.8113419907
0.8158103220
0.9275837147
0.8710933189
0.8862857600
0.9166275273
0.8464900351
0.8568525323
0.7825968484
0.7940614481
0.8249165157
0.7892557300
0.8835961667
0.8828831016
0.7910709362
0.8783793828
0.8594077404
0.8811387809
0.8512042679
0.8744608045
0.8123219688
0.8292683884
0.7870677094
0.7850099129
0.8079640797
0.8428365880
0.7865858068
0.8818142443
0.8800160538
0.8812823718
0.8847710304
0.8727426483
0.8622935616
0.7985410408
0.8941643834
0.9274916806
0.9339942540
0.8865872143
0.8258071455
0.9124130502
0.9038190235
0.8737008562
0.8331665202
0.8664668800
0.9029887216
0.9301397687
0.9275606183
0.9385490760
0.8952697295
0.8404270473
0.8187825679
0.8113505691
0.8845214177
0.8477257773
0.8772049086
0.9211315646
0.7809925686
0.7988485932
0.7847137365
0.8797344844
0.7912237850
0.8772552080
0.8343986937
0.8613866106
0.8679777205
0.8839478827
0.8541495502
0.8128414775
0.7809111173
0.8499267053
0.8843666931
0.7791780378
0.7867560919
0.7965098303
0.8825102291
0.8158714815
0.8526230827
0.8785527145
0.8850629097
0.8814657585
0.7896641858
0.8314918022
0.7824069858
0.8657584427
0.8934930365
0.8802402744
0.8794556285
0.8388391502
0.8711827360
0.9383936605
0.8290837484
0.9211855153
0.9013040068
0.9128458635
0.9442402696
0.8649407143
0.8094991404
0.8245216290
0.8092119082
0.9031858737
0.9319033788
0.8741683739
0.8909201979
0.8186102940
0.8529298208
0.8829880877
0.8278174126
0.8361020412
0.8728025318
0.9385229819
0.8437191378
0.8153217185
0.9112054251
0.8386945785
0.8310598756
0.7981506368
0.9486884842
0.8127215597
0.8491059112
0.9399743830
0.8838014064
0.8221651415
0.8034615192
0.8836725464
0.9652261717
0.8714177168
0.7855595413
0.7964337786
0.8592807567
0.8797586935
0.8667366505
0.8399882064
0.8579957080
0.7786161818
0.7889703442
0.7812863746
0.9136241221
0.8815950843
0.7978339691
0.8039892282
0.8792357510
0.8838909617
0.8210565987
0.9656654492
0.9365144943
0.9288896638
0.8895107462
0.7800340051
0.8729802939
0.8971526743
0.8414958400
0.8833562981
0.8826177211
0.8575361242
0.7839609488
0.7802298101
0.9054087479
0.7895331307
0.8229627993
0.8233666052
0.8290242512
0.8997729227
0.8737725727
0.8577994681
0.8766361870
0.8210655977
0.7935320868
0.8561695070
0.8562961193
0.9203759893
0.8515925805
0.8742325804
0.7953197089
0.8795208069
0.9479685608
0.8371145581
0.8358453657
0.8011686478
0.8762478083
0.8171298675
0.8612412735
0.8130686449
0.8009780837
0.8616311322
0.8410969080
0.8778391982
0.8715710991
0.8475395720
0.8450713019
0.9100990073
0.8463702505
0.8658154235
0.8887608741
0.7877931343
0.8552213335
0.8072511382
0.8436706941
0.8301459472
0.8767968898
0.9486596826
0.8063750716
0.8494129739
0.8562938752
0.8729449348
0.8615752044
0.8305486112
0.8737144871
0.9409676379
0.8236529405
0.9055996843
0.8788630439
0.8633931292
0.8122943825
0.7883370298
0.7829971969
0.8924463160
0.9263603510
0.8814416029
0.8829756326
0.8496701138
0.8572669432
0.8075465117
0.7852376522
0.8818983543
0.9136707904
0.9554556241
0.9629342761
0.9542640847
0.8352692225
0.9159167421
0.8817505167
0.8879360332
0.8784116760
0.8656369896
0.9450363923
0.7963716857
0.9378365446
0.8749736649
0.7921815913
0.8879542161
0.9477700094
0.9656361058
0.9214164342
0.8947468798
0.8930303167
0.8309408107
0.9523407395
0.8756349812
0.8689829278
0.9208985146
0.9288832187
0.8895073308
0.8702387370
0.7804442718
0.9570137619
0.8289126543
0.8771448099
0.9450464909
0.8452708081
0.8615217727
0.8829616870
0.8827741757
0.9554270728
0.8456957525
0.8590122037
0.9592005893
0.8926403746
0.8452763280
0.8379465347
0.8635482362
0.8764193294
0.9134758091
0.8549681282
0.9535858804
0.8490014713
0.8846247045
0.8564176220
0.8355574941
0.9055905622
0.8283033731
0.9333967535
0.9263496005
0.9111420829
0.9477459669
0.8947327852
0.9569833431
0.8846260902
0.8352779582
0.9166335804
0.9348762336
0.9601200506
0.9264478821
0.9034426837
0.9613830493
0.8572718838
0.9220554216
0.9386462260
0.8773660401
0.9308237002
0.9232275568
0.8993759927
0.9535321157
0.8937564933
0.8470070650
0.9428997270
0.8529746656
0.8694355151
0.8678931465
0.9486872920
0.8616048713
0.9159091570
0.9052823859
0.8411666378
0.8702357558
0.7883334247
0.8744138644
0.8768618929
0.8809136484
0.8687088187
0.8644047850
0.8638391537
0.7935450462
0.9639502662
0.8223642132
0.8816954532
0.8615214330
0.8777909054
0.9096495287
0.8073072190
0.8756358270
0.9442708288
0.8808631591
0.9371850781
0.8778780330
0.8234398021
0.7878091391
0.9360537609
0.8795845623
0.9213205654
0.9281598309
0.9103102782
0.9380242223
0.8063886522
0.8682099574
0.9651957858
0.8891306956
0.9063208043
0.8878051046
0.8884734151
0.8814312679
0.9188280002
0.7953488334
0.9385400582
0.9338022420
0.8841393874
0.8578475728
0.9262328197
0.9371618192
0.9473893573
0.8799058242
0.9336630348
0.8816938357
0.9277720735
0.8798529116
0.9333865139
0.8809131380
0.8564158555
0.9134658846
0.8755226913
0.8885475606
0.9568188432
0.9591712551
0.8997993666
0.9214035428
0.9099506831
0.9535083141
0.9372067111
0.9338000576
0.9268805343
0.9408965926
0.8470078302
0.8926342229
0.8678924990
0.9232188100
0.8971451317
0.9133022229
0.8853109672
0.8799950985
0.9600887117
0.9398477202
0.9281284611
0.8778043016
0.8864977992
0.8753247256
0.8993788155
0.9386242101
0.8873140798
0.9111572246
0.9072329844
0.9626839649
0.9342576924
0.9029124835
0.8873687003
0.8696379285
0.9034324200
0.8901528358
0.9164203644
0.9664444736
0.9441196786
0.8814727615
0.9043649166
0.9140215406
0.8844065738
0.9152582458
0.8973632447
0.9546368584
0.9252221146
0.9047563661
0.9100749443
0.9111429397
0.9420962286
0.9240742015
0.9322888696
0.9022477208
0.9296732829
0.9359848568
0.9342986038
0.9297325611
0.9212076205
0.9318247637
0.9115999681
0.9382739880
0.9401262656
0.9200291101
0.9239741864
0.9299516904
0.9313484596
0.9392103556
0.9396918346
0.9155445740
0.9271150880
0.9321126421
0.9208133106
0.9328545227
0.8909533396
0.9064806159
0.9025526940
0.9407666989
0.9440308893
0.9222972746
0.9132975034
0.9013225828
0.9262257359
0.9465683079
0.9308189650
0.9256753778
0.9437660394
0.9407878166
0.9468301445
0.9336580682
0.9391658674
0.9231164306
0.9486749167
0.9125059626
0.9485122257
0.9436459599
0.9062520678
0.9005774514
0.9642257950
0.8305880613
0.8288992269
0.8289400083
0.8306269854
0.8244579812
0.8239903920
0.8247349278
0.8289564852
0.8286750894
0.8269340646
0.8265599482
0.8287007068
0.8278622557
0.8333054810
0.8255140172
0.8322750843
0.8289931613
0.8244870531
0.8381018027
0.8398230065
0.8242597254
0.8236573636
0.8363275904
0.8277107189
0.8485539628
0.8217924384
0.8290758005
0.8639671588
0.8223748720
0.8353866629
0.8438123613
0.8395299411
0.8264657431
0.8565583333
0.8378345592
0.8323065231
0.8245282641
0.8381483172
0.8232588210
0.8498381651
0.8325793729
0.8514356795
0.8259803485
0.8284585638
0.8211380233
0.8545029945
0.8420365186
0.8268603429
0.8218149769
0.8485945826
0.8296525227
0.8272213438
0.8226920009
0.8264896840
0.8342936308
0.8401981925
0.8456924233
0.8304315171
0.8438766813
0.8232819051
0.8379017625
0.8406957278
0.8297939293
0.8392158760
0.8566104323
0.8291909784
0.8279450580
0.8354747116
0.8295091775
0.8285291564
0.8309606714
0.8315281483
0.8318043856
0.8450543100
0.8299959199
0.8459861872
0.8285031050
0.8345745933
0.8330500773
0.8515063265
0.8318008875
0.8402257806
0.8635254402
0.8606592951
0.8407723790
0.8304575407
0.8328970284
0.8298050103
0.8302003064
0.8320583074
0.8369589693
0.8373306815
0.8364018771
0.8679615280
0.8574289793
0.8321050660
0.8261064738
0.8313555561
0.8345912157
0.8442812598
0.8445462214
0.8326444161
0.8462874673
0.8418780426
0.8349076496
0.8388387642
0.8512080850
0.8320203428
0.8315955299
0.8300214315
0.8571815827
0.8330814320
0.8332261722
0.8478182108
0.8485670688
0.8483184610
0.8493309489
0.8318554669
0.8372942310
0.8533723019
0.8333529187
0.8460256532
0.8490192843
0.8329230434
0.8373583914
0.8229045350
0.8321198722
0.8497940769
0.8397312532
0.8508156790
0.8666831901
0.8316409117
0.8607022405
0.8311384727
0.8288367216
0.8447213240
0.8349893778
0.8635580664
0.8556176265
0.8586135831
0.8551128649
0.8373568772
0.8608530578
0.8483348577
0.8504088590
0.8439104456
0.8418963626
0.8196112727
0.8384551472
0.8443096986
0.8333855054
0.8378758318
0.8336178596
0.8550698243
0.8512306362
0.8572020670
0.8457151204
0.8325280116
0.8493868149
0.8320784266
0.8401673927
0.8445720682
0.8434394372
0.8163679483
0.8455940302
0.8316472696
0.8608053400
0.8498256785
0.8406372061
0.8236351415
0.8350002872
0.8294320812
0.8397531993
0.8646240503
0.8368135876
0.8648823490
0.8374812844
0.8267756622
0.8794769008
0.8424498433
0.8386933285
0.8237484133
0.8626419255
0.8183205052
0.8372529035
0.8508165340
0.8679772210
0.8292560459
0.8229361623
0.8824621656
0.8325340191
0.8577659456
0.8724184700
0.8608683453
0.8494107966
0.8642340523
0.8378962334
0.8139906365
0.8565139650
0.8439360875
0.8562608082
0.8385285521
0.8687127460
0.8196671372
0.8614307193
0.8244298277
0.8550916112
0.8648948156
0.8824358879
0.8370222444
0.8626518184
0.8137256148
0.8230129189
0.8555443271
0.8387249142
0.8531652527
0.8372701528
0.8374854717
0.8236995156
0.8204693090
0.8673355792
0.8827261311
0.8649598248
0.8337429115
0.8427054232
0.8368265417
0.8443012424
0.8297659755
0.8294930110
0.8687085937
0.8133900794
0.8477430668
0.8607612243
0.8749632034
0.8629155947
0.8693096532
0.8570055709
0.8192515418
0.8693375263
0.8788792387
0.8782640996
0.8700998414
0.8752989034
0.8465971626
0.8634077682
0.8442846441
0.8565520167
0.8790653306
0.8287484217
0.8795608048
0.8414380540
0.8370187560
0.8531849843
0.8555591004
0.8690984106
0.8338522266
0.8757969597
0.8546803932
0.8491217474
0.8170606284
0.8082375944
0.8330144292
0.8361604864
0.8617591306
0.8607743092
0.8788596679
0.8698271319
0.8735137113
0.8643549316
0.8466236363
0.8693140999
0.8401366928
0.8435270339
0.8477502246
0.8756967345
0.8467055976
0.8789414824
0.8629340203
0.8733686473
0.8752911323
0.8069816856
0.8398163586
0.8088880183
0.8258102642
0.8792348737
0.8795449812
0.8691064838
0.8795092021
0.8778036941
0.8795829498
0.8717405873
0.8516224633
0.8416289845
0.8792436465
0.8398518537
0.8734329319
0.8752879113
0.8320025406
0.8818783491
0.8786659736
0.8695378683
0.8643744286
0.8467113685
0.8707792273
0.8555491970
0.8617972497
0.8783026072
0.8398284713
0.8556919941
0.8800006755
0.8207801303
0.8331102469
0.8422038810
0.8770789011
0.8638978386
0.8480661399
0.8041771179
0.8752293987
0.8287891404
0.8771375933
0.8758321354
0.8808363510
0.8507008751
0.8783574905
0.8717290523
0.8756840438
0.8786469798
0.8790263599
0.8139284300
0.8795595327
0.8794172995
0.8790194403
0.8771406423
0.8266332133
0.8696470226
0.8714033934
0.8320236992
0.8259955978
0.8794770532
0.8792097591
0.8089457769
0.8734178994
0.8780188011
0.8760598646
0.8777788971
0.8790002274
0.8661653839
0.8786302297
0.8859661290
0.8110978357
0.8480747838
0.8556892242
0.8817940910
0.8788557306
0.8775522207
0.8561445541
0.8805023693
0.8688907236
0.8751839300
0.8799902618
0.8288104205
0.8208922202
0.8869860383
0.8616002328
0.8808851594
0.8758110398
0.8569719344
0.8748868874
0.8621911449
0.8782801999
0.8702298841
0.8598898933
0.8801073149
0.8788447027
0.8696340063
0.8016985238
0.8790034544
0.8329889747
0.8266553792
0.8140360309
0.8748907848
0.8793877145
0.8770258083
0.8587961939
0.8760408839
0.8407281467
0.8010739776
0.8746773922
0.8491097232
0.8702199911
0.8817706127
0.8825872806
0.8869660493
0.8775346757
0.8748714977
0.8814531002
0.8775318843
0.8788333523
0.8111864868
0.8643343993
0.8764451949
0.8778291978
0.8684769728
0.8804402213
0.8308654069
0.8809464899
0.8777567710
0.7954575292
0.8751994494
0.8700720624
0.8842923570
0.8488414321
0.8768549768
0.8017661960
0.8536645592
0.8901376104
0.8330041321
0.8195949785
0.8752195688
0.8758162195
0.8765199239
0.8775223499
0.8643290035
0.8846540575
0.8809373616
0.8814359113
0.8955989995
0.8834093501
0.8389113269
0.8778063071
0.8744744138
0.8011321377
0.8969089865
0.8958704540
0.8817550948
0.8975228964
0.8074950097
0.8275427653
0.8786227493
0.8751834787
0.8886487323
0.8752023115
0.8772367398
0.8764144212
0.7985252272
0.8811884982
0.8761688915
0.7959656509
0.9154746944
0.8789004501
0.8890772320
0.8933512375
0.8150573216
0.8958551761
0.8030683988
0.8937729704
0.8618477742
0.8993962744
0.8764990344
0.8254385581
0.8921282327
0.9033009378
0.8833926176
0.8869895103
0.9127626878
0.8862859563
0.9012410443
0.8113168773
0.8710461238
0.9094392666
0.8389921914
0.8968937891
0.9064035957
0.8955721215
0.8796909025
0.7979029024
0.8023233826
0.8772260025
0.8622295371
0.8511706507
0.8763979706
0.8290403026
0.7865287665
0.8812863664
0.8818335978
0.8843116052
0.7983757581
0.7910256174
0.8744563048
0.8766005297
0.8463223565
0.7892074924
0.8783928181
0.8844301171
0.8836035493
0.8121433160
0.8300797713
0.8865667131
0.9111950785
0.9016368793
0.8664450411
0.8257922401
0.8993541702
0.8030931793
0.8890437161
0.9041818477
0.8021639199
0.9038347040
0.9275235103
0.8937550008
0.8622534300
0.8915689522
0.8773506727
0.9121761679
0.8423484270
0.8952700019
0.9211722327
0.9032844907
0.8771830946
0.8404266909
0.9070697330
0.8166167214
0.8113271755
0.9126821481
0.9230870120
0.8700002118
0.9012010780
0.8843622169
0.9127437723
0.8534147387
0.8541379269
0.7986319181
0.7823569397
0.7866752093
0.8156345495
0.7958516861
0.8844159899
0.8831792754
0.8825051490
0.7908913134
0.8782368510
0.8847517469
0.8524812414
0.8785538495
0.8530974549
0.8796870966
0.8773383645
0.8211021534
0.8373253430
0.7911736139
0.7808489505
0.7986930888
0.8341684187
0.7899640452
0.8827910103
0.8842966183
0.8797391296
0.7979291803
0.8809661619
0.8843665042
0.8679284433
0.8837413700
0.8673215470
0.8074809430
0.8934840862
0.9219168601
0.9233624528
0.9041575720
0.9384264971
0.8858767732
0.8303074593
0.8057760489
0.9128575852
0.8021927201
0.9023946930
0.8711752490
0.8290646609
0.8679256172
0.9111552550
0.9031859700
0.9319339189
0.9230651713
0.9334662970
0.8939944844
0.8442499440
0.8152952700
0.9228308396
0.8158394006
0.9126503144
0.8829767734
0.8437246497
0.8774142542
0.9189401840
0.7839371638
0.8081568867
0.7801804293
0.8800116625
0.7871208866
0.8729563571
0.8429847554
0.8580033994
0.8727651648
0.8837387231
0.8834211305
0.8825940967
0.8045943355
0.8568738026
0.8038249986
0.7850912265
0.8413199600
0.8847643916
0.7785867530
0.7941857900
0.7888818455
0.8828833146
0.7986691276
0.8810586790
0.8251394378
0.8594960940
0.8811354695
0.8836516495
0.8797430589
0.7963998556
0.8219605488
0.7826680256
0.8591879935
0.8847438007
0.8737285815
0.8011642145
0.8139297561
0.8210371997
0.8941741917
0.9218886778
0.8765694343
0.8662680510
0.8766472584
0.8193345362
0.8358283117
0.8737126442
0.8168920453
0.8515508457
0.8778233382
0.9339624698
0.8331806813
0.8058106918
0.9203868473
0.8997712217
0.9123961958
0.8229562702
0.8458346817
0.8009795041
0.9479992737
0.8077165806
0.8411672554
0.9313437887
0.8704452156
0.8013089546
0.8236310783
0.8123510718
0.9029887693
0.9301033640
0.8751346491
0.8703080999
0.8887613482
0.8110095327
0.8494094831
0.8845349753
0.8257428116
0.8431939875
0.8763643861
0.9334415010
0.8477211373
0.8188118783
0.9310784606
0.9101024882
0.9228039208
0.8276552065
0.8415335514
0.7952737017
0.9436553945
0.8099982233
0.8545869331
0.9409957653
0.9063942253
0.8817022903
0.8146710843
0.8316964116
0.8958797300
0.8802126326
0.7962937831
0.8850713156
0.9629592803
0.9639502484
0.9314488137
0.8655913400
0.9378462737
0.9072206995
0.7921565653
0.8810717506
0.7896983744
0.8884410035
0.8658171799
0.8745967191
0.8814734900
0.8634087544
0.8308041116
0.8613899763
0.7792352620
0.7966610880
0.9201035266
0.7804183230
0.9209031281
0.8788211333
0.8075228544
0.8130460174
0.8878035236
0.8814025953
0.8121700700
0.8834314152
0.9673216038
0.9672263817
0.9409169366
0.8765021942
0.9343684847
0.8994121337
0.7829730917
0.8772692268
0.8046308016
0.9063242728
0.8500676725
0.8924462585
0.8839632018
0.8495709436
0.7810212022
0.7848042665
0.9136739493
0.7852162699
0.8124464078
0.8531542634
0.8316526396
0.8755181211
0.8590147388
0.8193377660
0.8379458340
0.8414183512
0.9013065829
0.8776552373
0.8415106756
0.8646716464
0.8776152504
0.8767699670
0.8794541914
0.8271199205
0.7876277392
0.8458355823
0.7954215581
0.8453778043
0.8556188518
0.9211724218
0.8584349560
0.8778745030
0.7991267628
0.8529537465
0.8270719369
0.8355525802
0.8829229419
0.9442092053
0.8108533612
0.8412017827
0.8388556052
0.8386967633
0.8561718706
0.8773437469
0.8694078321
0.7954278840
0.8283048937
0.8734122774
0.8169012439
0.8663068309
0.8682442931
0.9313176163
0.8139594240
0.8077179059
0.8012403148
0.8741785153
0.8095061282
0.8607380791
0.8493496342
0.8370938185
0.8812345389
0.8629884118
0.8310637879
0.8379934062
0.8395999344
0.9112015265
0.8766246776
0.8492685369
0.8706817874
0.8729256485
0.8909236385
0.8361446261
0.7849797240
0.8622247106
0.8622274102
0.8470112500
0.9310569068
0.8649804273
0.8742149432
0.8140513081
0.8443786506
0.8273697408
0.8803875712
0.9436278297
0.7965021212
0.8130693723
0.8278412822
0.8529240941
0.8453785244
0.8754765903
0.8650025207
0.7981554807
0.8240475029
0.8718157307
0.8099981793
0.8546262167
0.8727968400
0.9399447654
0.8245447447
0.8110076994
0.8092259116
0.9076575892
0.8816226412
0.8799014109
0.8814189138
0.8765263955
0.8667235288
0.9542487104
0.8212230612
0.9343603467
0.8687126839
0.7889421809
0.7800637336
0.8833547366
0.8891061830
0.9386960127
0.9639238914
0.9281588134
0.8839241558
0.9263004383
0.8857869104
0.8873024421
0.8576219233
0.9485587513
0.8692555159
0.8739670713
0.9063910717
0.9365065163
0.8808948698
0.8808918166
0.8600291822
0.7978618148
0.7895974238
0.8812633301
0.9054057021
0.9011497744
0.9527215611
0.9651973330
0.8223549372
0.8782269373
0.9567532649
0.9445383357
0.8346093310
0.9605452674
0.8612021535
0.9177692493
0.8838350976
0.8841319774
0.8759254678
0.8714498853
0.9487893322
0.8035931425
0.9409076506
0.8694823271
0.7855772163
0.9011488320
0.8864621532
0.9480437616
0.9671940432
0.9372793877
0.8802384821
0.9281663861
0.8971733587
0.8891527484
0.8401356384
0.9567357080
0.8712882317
0.8657346266
0.9136207066
0.9314435737
0.8994094361
0.9157210825
0.8733302811
0.8146994525
0.7813156341
0.8784633194
0.9201000177
0.9527754662
0.9672888502
0.9396588726
0.8262167397
0.8733872853
0.9579531555
0.9485702654
0.8462783807
0.8556107671
0.9030915315
0.9386760314
0.8857701739
0.8767681939
0.9526918470
0.8415114959
0.8715690072
0.8262301283
0.9287394117
0.8496821005
0.9389098596
0.9600006402
0.9348748772
0.8721987077
0.8899486490
0.8289739745
0.9602081338
0.8462866178
0.9155498728
0.8289738437
0.7952719827
0.8556177063
0.9366237049
0.8583925459
0.8752038755
0.8827741165
0.8276629494
0.8722387566
0.9264690513
0.9111506557
0.8531657813
0.8432496988
0.8928688332
0.9557505489
0.8124384807
0.9440783105
0.8414175503
0.8127221983
0.8771268862
0.9021080703
0.8612041800
0.8410671481
0.9435201526
0.8803053215
0.8680613825
0.8415350499
0.8346717333
0.8757174337
0.8567134219
0.9467956520
0.8346806459
0.8551883732
0.9076522044
0.9178061961
0.8235428975
0.9309085947
0.9281472026
0.8491378308
0.9168230313
0.9480176938
0.8971631478
0.8880501534
0.9527461671
0.8395984860
0.8771259751
0.8490020788
0.8346189965
0.9223988625
0.8475398039
0.9379847994
0.9633141520
0.9318297824
0.9009416427
0.9585425803
0.8600328264
0.9270919057
0.8290213064
0.8305481003
0.8658121460
0.9407944522
0.8728549325
0.8549606363
0.8734470696
0.9351081203
0.9209208890
0.8463756452
0.9030109668
0.9546768205
0.9522930537
0.8470113668
0.8756900448
0.8880484654
0.8957099137
0.8490097134
0.9437740503
0.8607575505
0.8737179573
0.8667512078
0.9482377809
0.8436829732
0.8682700307
0.9177621815
0.9102259655
0.8301463832
0.9416170349
0.9372626828
0.8494304328
0.8733183866