<VTKFile type="UnstructuredGrid" version="0.1">
	<UnstructuredGrid>
		<Piece NumberOfPoints="1862" NumberOfCells="3498">
			<CellData>
				<DataArray type="Int32" Name="type" NumberOfComponents="1" Format="ascii">
0
0
0
0
0
0
0
0
0
0
0
0
0
0
0
0
1
0
0
1
0
0
0
0
0
0
0
0
0
0
0
0
0
1
0
0
0
0
0
0
0
0
0
0
0
0
0
0
0
0
1
0
0
0
0
0
0
0
0
0
0
1
0
0
0
0
0
0
0
0
0
0
0
0
0
0
0
0
0
0
0
0
0
0
0
0
0
0
0
0
0
0
0
0
0
0
0
0
0
0
0
0
0
0
0
0
0
0
0
0
0
0
0
0
0
0
0
0
0
0
0
0
0
1
0
0
0
0
0
0
0
0
0
0
0
0
0
0
0
0
0
0
0
0
0
0
0
0
0
0
0
1
0
1
1
0
0
0
0
0
0
0
0
0
0
0
0
0
1
0
1
0
0
0
0
1
0
0
0
0
0
0
0
0
1
1
0
0
0
0
0
1
0
0
0
0
0
0
0
0
1
0
0
0
0
0
0
0
0
0
0
0
0
0
0
0
0
0
0
0
0
0
0
0
0
0
0
0
0
0
0
0
0
1
0
0
0
0
0
0
0
0
0
0
0
0
0
0
0
0
0
0
0
0
0
0
0
0
0
0
0
0
0
0
0
0
0
0
0
0
0
0
0
0
0
0
0
0
0
0
0
1
0
0
0
0
0
0
0
0
0
0
0
0
0
0
0
0
0
0
0
0
0
0
0
0
0
0
0
0
0
0
0
0
0
0
0
0
0
0
0
0
0
0
0
0
0
0
0
0
0
0
1
0
0
0
0
0
0
0
0
0
0
0
0
0
0
0
0
0
0
0
0
0
0
0
0
0
0
0
0
0
0
0
0
0
0
0
0
0
0
0
0
0
0
0
0
0
0
0
0
0
0
0
0
0
0
0
0
0
1
0
0
0
0
0
0
0
0
0
0
0
0
0
0
0
0
0
0
0
0
0
0
0
0
0
0
0
0
0
0
0
0
0
0
0
0
0
0
0
0
0
0
0
0
0
0
0
0
0
0
0
0
0
0
0
0
0
0
0
0
0
0
0
0
0
0
0
0
0
0
0
0
0
0
0
0
0
0
0
0
0
0
0
0
0
0
0
0
0
0
0
0
0
0
0
0
0
0
0
0
0
0
0
0
0
0
0
0
0
0
0
0
0
0
0
0
0
0
0
0
0
0
0
0
0
0
0
0
0
0
0
0
1
0
0
0
0
0
0
0
0
0
0
0
0
0
0
0
0
0
0
0
1
0
0
0
0
0
0
0
0
0
0
0
0
0
0
0
0
0
0
0
0
0
0
0
0
0
0
0
0
0
0
0
0
0
0
0
0
0
0
0
0
0
0
0
0
0
0
0
0
0
0
0
0
0
1
0
0
0
0
0
0
0
0
0
0
0
0
0
0
0
0
0
0
0
0
0
0
0
1
0
0
0
0
0
0
0
0
0
0
0
0
0
0
0
0
0
0
0
1
0
0
0
1
0
0
0
0
0
0
0
0
0
0
0
0
0
0
0
0
0
0
0
0
0
0
0
0
0
1
0
0
0
0
0
0
0
1
0
0
0
0
0
0
0
0
0
0
0
0
0
0
0
0
0
0
0
0
0
0
0
0
0
0
1
0
0
0
0
0
0
0
1
0
0
0
0
0
0
1
0
0
0
0
0
0
0
0
0
0
0
0
0
0
0
0
0
0
0
0
0
0
0
0
0
0
0
0
0
0
0
0
0
0
0
0
0
0
1
0
0
0
0
0
1
0
0
0
0
0
0
0
1
0
0
0
0
0
0
0
0
0
0
0
0
0
1
0
0
0
0
0
0
0
0
0
0
0
0
0
0
0
0
0
0
0
0
0
0
0
0
0
0
0
0
0
0
0
0
0
0
0
0
0
0
0
0
0
0
0
0
0
0
0
0
0
0
0
0
0
1
0
0
0
0
0
0
0
0
0
0
0
0
0
0
0
0
0
0
0
1
0
0
0
0
0
0
0
0
0
1
0
0
0
0
0
0
0
0
0
0
0
0
0
0
0
0
0
0
0
0
0
0
0
0
0
0
0
0
0
1
0
1
0
0
0
0
0
0
0
0
0
0
0
0
0
0
0
0
0
0
0
0
0
0
0
0
0
0
0
1
0
0
0
1
0
0
0
0
0
0
0
0
0
0
0
0
0
0
0
0
0
0
0
0
0
0
0
0
0
0
0
0
1
0
0
0
0
0
0
0
0
0
0
0
0
0
0
0
0
0
0
0
0
0
0
0
0
0
1
0
0
0
0
0
0
0
0
0
0
0
0
0
0
0
0
0
0
0
0
0
0
0
1
0
0
0
0
0
0
1
0
0
0
0
0
0
0
0
0
0
0
1
0
0
0
0
0
0
0
0
0
0
0
0
0
0
0
0
0
0
0
0
1
0
0
0
0
0
0
0
0
0
0
0
1
0
0
0
0
0
0
0
0
0
0
0
0
0
0
0
0
0
0
0
0
0
1
0
0
0
0
0
0
0
0
0
1
1
0
1
0
1
0
0
0
0
0
0
0
0
0
0
0
1
0
0
0
0
0
1
1
0
0
0
0
0
0
1
0
0
0
0
0
1
1
1
0
0
0
0
0
0
0
0
0
0
0
0
1
1
0
0
1
0
0
0
0
0
1
0
0
0
1
0
1
0
0
0
0
0
0
0
1
0
0
0
0
0
0
0
1
0
0
1
0
0
0
0
0
0
0
0
0
0
0
0
0
0
0
1
0
0
0
0
0
0
0
0
0
0
0
0
0
0
0
0
0
0
0
0
0
0
0
0
0
0
0
0
0
0
0
0
0
0
0
0
1
0
0
0
0
0
0
1
0
0
0
1
0
0
0
0
0
0
0
0
0
0
0
1
0
0
0
0
0
0
0
0
0
0
0
0
0
0
0
0
0
0
0
0
0
0
0
0
0
0
0
0
0
0
0
0
0
0
0
0
0
0
0
0
1
1
0
0
0
0
0
0
0
0
0
0
0
0
0
1
0
0
0
0
0
0
0
0
0
0
0
0
0
0
0
0
0
0
0
0
0
0
0
0
0
0
0
0
0
0
0
0
0
0
0
0
0
0
0
0
0
0
0
0
0
0
0
0
0
0
0
0
0
0
0
0
0
0
0
0
0
0
0
0
0
0
0
0
0
0
0
0
1
1
0
0
0
0
0
0
0
0
1
0
0
0
0
0
0
0
0
0
0
0
0
0
0
0
0
0
0
0
0
0
0
0
1
0
0
0
0
0
0
0
0
0
0
0
0
0
0
0
0
1
0
0
0
0
0
0
0
0
0
0
0
0
0
0
0
0
0
0
0
0
0
0
0
0
0
0
0
0
0
0
0
0
0
0
0
0
0
0
0
0
0
0
0
0
0
0
0
0
0
0
0
0
0
0
0
0
0
0
0
0
0
0
0
0
0
0
0
0
0
0
0
0
0
0
0
0
0
0
0
0
0
0
0
0
0
0
0
0
0
0
1
1
0
0
0
0
0
1
0
0
0
0
0
0
0
0
0
0
0
0
1
0
0
0
0
0
0
0
0
0
0
0
0
0
0
0
0
0
0
0
0
0
0
0
0
0
0
0
0
0
0
0
0
0
0
0
0
0
0
0
0
0
0
0
0
0
0
0
0
0
0
0
0
0
1
0
1
0
0
0
0
0
0
0
0
0
0
0
0
0
0
0
0
0
0
1
0
0
0
0
0
0
0
0
0
0
0
0
0
0
0
0
0
0
0
0
0
0
0
0
0
0
0
0
0
0
0
0
0
0
0
0
0
0
0
0
0
0
0
0
0
0
0
0
0
0
0
0
0
0
0
0
0
0
0
0
0
0
0
0
0
0
0
0
0
0
1
0
0
0
0
0
0
0
0
0
0
1
0
0
0
0
0
0
0
0
0
0
0
0
0
0
0
0
0
0
0
0
0
0
0
0
0
0
0
0
0
0
0
0
0
0
0
0
0
1
0
0
0
0
0
0
0
0
0
0
0
0
0
0
0
0
0
0
0
0
0
0
0
0
0
0
0
0
0
0
0
0
0
0
0
0
0
0
0
0
0
0
0
0
0
0
0
0
0
0
0
0
0
0
0
0
0
0
0
0
0
0
0
0
0
0
0
0
0
0
0
0
0
0
0
0
0
0
0
0
0
1
0
0
0
0
0
0
0
0
0
0
0
0
0
0
0
0
0
0
0
0
0
0
0
0
0
0
0
0
0
0
0
0
0
0
0
0
0
0
0
0
0
0
0
0
0
0
0
0
0
0
0
0
0
0
0
0
0
0
0
0
0
0
0
0
0
0
0
0
0
0
0
0
0
0
0
0
0
0
0
0
0
0
0
0
0
0
0
0
0
0
0
0
0
0
0
0
0
0
0
0
0
0
0
0
0
0
0
0
0
0
0
0
0
0
0
0
0
0
0
0
0
0
0
1
0
0
0
0
0
0
0
0
0
0
0
0
0
0
0
0
0
0
0
0
0
0
0
0
0
0
0
0
0
0
0
0
0
0
0
0
0
0
0
0
0
0
0
0
0
0
0
0
0
0
0
0
0
0
0
0
0
0
0
0
0
0
0
0
0
0
0
0
0
0
0
0
0
0
0
0
0
0
0
0
0
1
0
0
0
0
0
0
0
1
0
0
0
0
0
0
0
0
0
0
0
0
0
0
0
0
0
0
0
0
0
0
0
0
0
0
0
0
0
0
0
0
0
0
0
0
0
1
0
0
0
0
0
0
0
0
0
0
0
0
0
0
0
0
0
0
0
0
0
1
0
0
0
0
0
0
0
0
0
0
0
0
1
1
0
0
0
0
0
0
0
0
0
0
0
0
0
0
0
1
1
0
1
0
0
0
0
0
0
0
0
0
1
0
0
0
0
0
0
1
0
0
0
0
0
0
0
0
0
0
1
0
0
0
0
1
0
1
0
0
0
0
0
0
0
1
0
0
0
1
0
0
0
1
0
1
1
0
0
1
1
0
0
0
1
0
0
0
1
0
0
0
0
0
0
0
0
0
1
0
0
0
0
0
0
1
0
0
0
0
0
0
0
0
0
0
0
0
0
0
0
0
0
0
0
0
0
0
0
0
0
0
0
1
0
0
1
0
0
0
0
0
0
0
0
0
0
0
0
0
0
0
0
0
0
1
0
0
1
0
0
0
0
0
0
0
0
0
0
0
1
0
0
1
0
0
0
0
0
0
0
0
0
0
0
1
1
0
0
0
0
0
0
0
0
0
0
0
0
1
0
0
0
0
0
0
0
0
0
0
0
0
0
0
0
0
0
1
0
0
0
0
0
0
0
0
0
0
0
0
0
0
0
0
0
1
0
0
0
0
0
0
0
0
0
0
0
0
0
0
0
0
0
0
0
0
0
0
0
0
0
0
0
0
0
0
0
0
0
0
0
0
0
0
0
0
1
0
0
0
0
0
0
0
0
0
0
0
0
0
0
0
0
0
0
0
0
0
0
0
0
0
0
0
0
0
0
0
0
0
0
0
0
0
0
0
0
0
0
0
0
0
1
0
0
0
0
0
0
0
0
0
0
0
0
0
0
0
0
0
0
0
0
0
0
0
0
0
0
0
0
0
0
0
0
0
0
0
0
0
0
0
0
0
0
0
0
0
0
0
1
0
0
0
0
0
0
0
0
0
0
1
0
0
0
0
0
0
0
0
0
0
0
0
0
0
0
1
0
0
1
0
0
0
0
0
0
0
0
0
0
0
0
0
0
0
0
0
0
0
0
0
0
0
1
0
0
0
0
0
0
0
0
0
0
0
0
0
0
0
0
0
0
0
0
0
0
0
0
0
0
0
0
0
0
0
0
0
0
0
1
0
0
0
0
0
0
0
0
0
0
0
0
0
0
0
0
0
0
0
0
0
0
0
0
0
0
0
0
0
0
0
0
0
0
0
0
0
0
0
0
0
0
0
0
0
0
0
0
0
0
0
0
0
0
0
0
0
0
0
0
0
0
0
0
0
0
0
0
0
0
0
0
0
0
0
0
1
0
0
0
0
0
0
0
0
0
0
0
0
0
0
0
0
0
0
0
0
0
0
0
0
0
0
0
0
0
0
0
0
0
0
0
0
0
0
0
1
0
0
0
0
0
0
0
0
0
0
0
0
1
1
0
0
0
0
0
0
0
0
0
0
0
0
0
0
0
0
0
0
0
0
0
0
0
0
0
0
0
0
0
0
0
0
0
0
0
0
0
0
0
0
0
0
0
0
0
0
0
0
0
0
0
0
0
0
0
0
0
0
0
0
0
0
0
0
0
0
0
0
0
0
0
0
0
0
0
0
0
0
0
0
0
0
0
0
0
0
0
0
0
0
0
0
0
0
0
0
0
0
0
0
0
1
0
1
0
0
0
0
0
0
0
1
1
1
1
0
0
0
0
0
0
0
0
0
0
0
0
0
0
0
0
0
0
0
0
0
0
0
0
0
0
0
0
1
1
0
0
0
0
0
0
0
0
0
0
0
0
0
0
0
0
0
0
1
0
0
0
0
0
0
0
1
1
0
1
1
0
0
1
0
0
0
0
0
0
0
1
0
1
0
0
0
0
0
0
0
0
0
0
0
0
0
0
0
0
0
0
0
0
0
0
0
0
0
0
0
1
1
0
0
0
1
1
0
0
0
0
1
0
0
1
0
1
0
0
0
0
0
1
0
0
0
1
0
0
0
0
0
0
0
0
0
0
0
0
0
0
0
0
0
0
0
0
0
0
0
0
0
0
0
1
0
0
0
0
0
0
1
0
0
0
0
0
0
0
0
0
0
0
0
0
0
0
0
0
0
0
0
0
0
0
0
0
0
0
0
0
1
0
1
0
0
0
0
0
0
0
1
0
0
0
0
0
0
0
0
0
0
0
1
0
0
0
0
0
0
0
0
0
1
0
0
0
0
0
0
0
1
0
0
0
0
0
0
0
1
0
0
0
0
0
0
0
0
0
0
0
0
0
0
0
0
0
0
0
1
0
1
0
0
0
0
0
1
0
0
0
0
0
0
0
0
0
0
0
0
0
0
0
0
0
0
0
0
0
0
0
0
0
1
0
1
0
0
0
0
0
0
0
0
0
1
0
0
0
0
0
1
0
0
0
0
0
0
0
0
0
0
0
0
0
0
0
1
0
0
0
0
0
0
0
0
1
0
0
0
0
0
0
0
0
0
0
0
0
0
0
0
0
0
0
0
0
0
0
0
0
0
0
0
0
0
0
1
0
0
0
0
0
0
0
0
0
0
0
0
0
0
0
0
1
0
0
0
0
0
0
0
0
1
0
0
0
0
0
0
0
0
0
1
0
0
0
0
0
1
0
0
0
0
0
0
0
0
0
0
0
0
0
0
0
0
0
0
0
1
0
0
0
0
0
0
1
0
0
0
0
0
0
0
0
1
0
0
0
0
0
0
0
0
0
0
0
0
0
0
1
0
0
1
0
0
0
1
0
0
0
0
0
0
0
0
0
0
0
0
0
0
0
0
1
0
0
0
0
0
0
0
0
0
0
1
0
1
0
0
0
0
0
0
1
0
0
0
0
0
0
0
0
0
0
0
0
0
0
0
0
0
0
0
0
0
0
0
0
0
0
0
1
1
0
0
0
0
0
0
1
0
0
0
0
0
0
0
0
0
0
0
0
0
1
0
0
0
0
0
0
0
1
0
0
0
0
0
0
0
0
0
0
0
0
0
0
0
0
0
0
0
0
0
0
0
0
0
0
0
1
0
0
0
0
0
0
0
0
0
0
1
0
0
1
0
0
0
0
0
0
0
0
0
0
0
0
0
0
0
0
0
0
0
0
0
0
0
0
0
0
0
0
0
1
0
0
0
0
0
0
0
1
0
0
0
0
0
0
0
1
0
0
0
0
1
0
0
0
0
0
0
0
0
0
0
0
1
0
1
0
0
0
1
0
				</DataArray>
				<DataArray type="Float64" Name="h" NumberOfComponents="1" Format="ascii">
0.7284828029
0.7284787797
0.7449815248
0.7403578683
0.7434311426
0.7450681413
0.7403219535
0.7302439570
0.7378226191
0.7276046110
0.7355023425
0.7447652349
0.7227895461
0.7368362044
0.7297045963
0.7153978836
0.7382110743
0.7273024763
0.7231955164
0.7379297272
0.7510485564
0.7161103775
0.7229550887
0.7512003460
0.7378556334
0.7193128464
0.7036330216
0.7252737762
0.7336234982
0.7301639437
0.7330986947
0.7290518026
0.7098164507
0.7497171649
0.7777083618
0.7462088020
0.7617660043
0.7119471694
0.7177146949
0.7532968933
0.7388772121
0.7471182455
0.7111579034
0.7240221694
0.7510716426
0.7283510048
0.7193585940
0.7826962980
0.8322731730
0.8167669889
0.7622226059
0.7388806974
0.7307783220
0.7754680204
0.7556971052
0.6989511096
0.7359627619
0.7965884328
0.7970911927
0.7819865545
0.8202448383
0.8161633570
0.8305121487
0.7451995531
0.7187172558
0.7343227131
0.7985836844
0.8147777891
0.8110754726
0.8061118844
0.7994733111
0.7635006695
0.6976006788
0.7883173805
0.7935787736
0.6898022722
0.7965217799
0.8140501929
0.7915210210
0.7065532345
0.8323526529
0.7478536123
0.8614622584
0.7964530175
0.6899171903
0.7124795317
0.8363180286
0.7750757993
0.8118971057
0.8519927846
0.8356539536
0.7006447325
0.8223140834
0.8398370832
0.7371148143
0.7220854524
0.7526397625
0.6993627246
0.7146455255
0.8356812353
0.8549971489
0.8331319636
0.7610801569
0.7914130264
0.7228812054
0.7803935441
0.7222983222
0.8418000654
0.8111779830
0.7450591933
0.8298947730
0.8437291194
0.8274154939
0.8333474733
0.7822535683
0.8582936884
0.7681748485
0.7294164910
0.8480821542
0.8014285562
0.7250267863
0.7597998928
0.6946886849
0.7265010313
0.8235867159
0.8457088934
0.7887988102
0.7266167222
0.8567215166
0.8582847079
0.8495110467
0.7330772221
0.8073610180
0.8628614900
0.7256278668
0.8472383513
0.7196618907
0.8638787751
0.8449592647
0.7065591360
0.7275966171
0.7239058378
0.8543794982
0.6989584101
0.7068048135
0.8459780865
0.7120474721
0.8705537556
0.7226581292
0.8735188793
0.7222580774
0.8667885773
0.8667475491
0.8723847122
0.8415301428
0.8652614705
0.8734143906
0.7255497894
0.8733748920
0.7368885607
0.7036357716
0.8707020072
0.7157348463
0.7277271278
0.7249267719
0.8643474035
0.6902554447
0.7113598182
0.7230339032
0.8665149831
0.8725496614
0.7375543376
0.8734089297
0.7247276749
0.6847043038
0.8763465826
0.6941830757
0.8727098990
0.8766534980
0.7281550843
0.8638884964
0.6756380869
0.7430354708
0.6883267069
0.7484964435
0.7297063894
0.6822068857
0.8755425075
0.7217634703
0.7727954980
0.6684079968
0.8770783941
0.7687164543
0.6754261003
0.8763316855
0.8697915096
0.7306602195
0.6631270247
0.6705886586
0.8747612035
0.7808355411
0.7044134981
0.7437827855
0.8755165598
0.6621938772
0.7955645777
0.7063317232
0.7212641522
0.6695108531
0.6867459619
0.6555934122
0.7463165930
0.7437455045
0.8321547154
0.7137996306
0.6485885356
0.6970911337
0.7538751817
0.6649860868
0.7850993971
0.6738088873
0.8423021552
0.6757173589
0.8099084415
0.6995402493
0.8755514368
0.8632576540
0.7627288313
0.6674500229
0.8541792412
0.8754553457
0.8276617832
0.7324816168
0.8751145081
0.8737050297
0.7879171805
0.6476274365
0.6984773242
0.8208003333
0.6741591804
0.6351147260
0.7174704623
0.8013389610
0.6813814912
0.7183936539
0.7030518624
0.7825018244
0.6576434788
0.7082720239
0.7570542120
0.6870445033
0.6469211207
0.7462782523
0.6412794176
0.6265936599
0.8355352683
0.6928125498
0.7113971395
0.8320785758
0.8226954808
0.6603715092
0.6804434176
0.7517365727
0.8059908888
0.7189579429
0.8730145093
0.8763810416
0.6513487440
0.8757265762
0.8416532827
0.8635984399
0.6691985516
0.8512625920
0.7795197293
0.8031841980
0.6462188888
0.7174766710
0.7812059806
0.8258570938
0.6846000477
0.8611439859
0.8758623396
0.8753946652
0.8744557611
0.8541394133
0.8385027209
0.7515317380
0.6904084460
0.7858684866
0.8022134705
0.6943663505
0.6269761331
0.7134226326
0.7144546421
0.6616580967
0.6159206907
0.6677447827
0.7021944809
0.7573759455
0.8354562149
0.8336702209
0.7050395445
0.6390085869
0.6062185859
0.6189590356
0.6768798454
0.6297529834
0.6818482488
0.7468798188
0.6645262292
0.7711070293
0.7420065665
0.8765283824
0.6297678295
0.8649188109
0.8202150708
0.6454993168
0.8513415391
0.8778238513
0.6530308977
0.8031935368
0.7020926176
0.8420502977
0.8738496224
0.7038591989
0.7387250426
0.7755289778
0.8763583868
0.7982475909
0.8377762048
0.8616355631
0.8758924161
0.8773811034
0.6291177889
0.8250877201
0.6644102676
0.8551644486
0.6857590968
0.8880262186
0.6512851776
0.6013179330
0.6547840846
0.7853164768
0.6084130642
0.7094252071
0.6833813608
0.7097201503
0.7990616635
0.8857394665
0.7119591588
0.5917793750
0.8382972062
0.6983885566
0.7457564783
0.8955992659
0.6682165582
0.7766895998
0.6162189771
0.6710805340
0.8749742488
0.8708748259
0.8949818133
0.8335946953
0.6219087375
0.6003287712
0.6966640308
0.6762149632
0.7299986128
0.7803751723
0.8273595244
0.8363476232
0.8930802168
0.7554055172
0.8799896308
0.8189677624
0.8030008333
0.8754816203
0.7592021459
0.8675627219
0.6544328357
0.6143624479
0.8524220924
0.8781122535
0.6334786538
0.8442475456
0.6379392187
0.6877709217
0.7642514402
0.7364871105
0.6623481445
0.8792356147
0.6199412759
0.7946107905
0.6406662608
0.8782850665
0.8263347586
0.7521647246
0.6989746182
0.6902737022
0.6061118328
0.6954970372
0.8631439255
0.6244628931
0.8379374158
0.5999349930
0.8779156286
0.8577331123
0.6478822708
0.7279562674
0.6445759847
0.7729718872
0.6871922039
0.8460969667
0.7544520993
0.6783437131
0.8888755963
0.8713125751
0.6443726745
0.8574645344
0.6874378624
0.7636485490
0.6548439864
0.7052264968
0.8798962734
0.8975178642
0.7992437213
0.8841291525
0.7816519863
0.8862418706
0.5953489994
0.7459015299
0.9043025776
0.8579742745
0.8967385118
0.8076401409
0.8125981014
0.9336954695
0.8608452263
0.8824795444
0.8920147562
0.8152101159
0.8977073424
0.6925028032
0.9218568771
0.8927808417
0.6621474906
0.7270208477
0.8690081121
0.8258651042
0.9068241488
0.8854676067
0.8833996046
0.8272927476
0.6521512071
0.6090483585
0.6548411971
0.9169366269
0.9122751188
0.8415725876
0.9220810152
0.7431370069
0.5890211306
0.6736525840
0.8803536655
0.6261609619
0.8201450569
0.7658565115
0.6804055129
0.6031378819
0.7018509962
0.8782202501
0.6385089326
0.8552084808
0.6027011341
0.6115738718
0.7613921779
0.9420774284
0.6510737998
0.7756681416
0.7421349337
0.7195789191
0.5890307664
0.6885327311
0.8803917185
0.9830086760
0.9559642420
0.8661163443
0.7069860516
0.7942285974
0.7007433380
0.9492296408
0.6406021957
0.9543340603
0.7394819945
0.7521439188
0.6783711232
0.6568424159
0.9746761168
0.8401812248
0.7110994244
0.9686342993
0.9582879620
0.6707813136
0.6902437161
0.6061231181
0.6199027426
0.7225323655
0.8170891399
0.6078908354
0.9488461243
0.7070208397
0.5902904425
0.9287567071
0.6385138432
1.0381508112
0.7756038178
0.9163064671
0.8441124473
0.7825041046
0.6449688471
0.5903149830
0.8189957643
0.8856143835
0.8920927567
0.6779724731
0.9322557595
0.7052461944
0.8766414745
0.8299325013
0.5955388011
0.8988141579
0.6736334138
0.8665300602
0.7047785180
0.7018184719
0.6014072732
0.7394303169
0.6568326773
0.8170331045
0.8299160088
0.5890426608
0.6100762413
0.6969227440
0.8211685413
0.6543806482
0.6623298256
0.7287303386
0.6027285808
0.6286531747
0.7032816818
0.9171036728
0.6786473171
0.6917478496
0.6964964682
0.7462083235
1.0785694677
0.5925578385
0.7051608245
0.9113061243
0.9110835723
0.6090289600
0.7036379082
0.9122580471
0.6885049260
0.6062027664
0.8608720168
0.6199217404
0.7658435368
0.9410938595
0.8834370581
0.6264936378
0.9144719231
0.9541348053
0.9140325685
0.6874249382
0.7719381455
0.6276556705
1.0282303738
0.9287325481
0.6117938866
0.6650130936
0.8258768464
0.9686130214
0.6780000708
0.9884438668
0.7036566832
0.8824871736
0.8461175974
0.7270059411
0.6574462105
0.8841512286
0.5761111825
0.6864116898
0.6104509312
0.6372267141
0.6521406956
0.5994851276
0.8060367276
0.9550301638
0.6300990294
0.6283014795
0.6294786668
0.9499990572
0.6799611425
0.7992414229
0.6402374831
0.5804927763
0.9755944811
0.8713297600
0.6294350569
0.5919885179
0.7174202711
0.9751484935
0.6672376185
1.0282122902
0.6922891276
0.9560528918
0.7047447485
0.6265059414
0.5955634435
0.6779490484
0.9120326203
1.1305762360
0.7393193477
0.7824498454
0.6479199897
0.6116848706
1.0149790744
0.7461581722
0.5529359338
0.5805397418
0.5981809931
0.5363081410
0.5925719985
0.6449660356
0.6090522358
0.6917177826
1.0027623713
1.0175346692
0.9833306144
0.9613327420
0.8211238311
0.5545689017
0.5816640305
0.6062572707
0.9451466179
0.9720362334
0.6965025063
0.6139238947
0.9723357133
0.6289740754
0.6588445850
0.7556782272
0.6987285370
0.6783937450
0.6218611889
0.5985999134
0.6623149235
0.9889838961
0.6745885033
0.7889564975
0.7104412761
0.9673751077
1.0101797024
1.0149174961
0.9712795598
0.6154142575
0.6408994492
0.7277856654
0.6875717895
0.9910053158
0.9944148117
0.6014282457
0.5365725157
0.5988626714
0.5766254745
1.0080848554
0.5663164199
0.5418125049
1.0470409040
1.0438655116
0.6459087454
0.6535384325
1.0208285633
0.6404877150
0.5813892707
0.5908020143
1.0337635957
1.0435179024
1.0444524960
0.6700303226
0.6896308273
0.6106843513
0.6185868209
0.6004525844
1.0303369847
1.0450885764
0.9956357025
1.0147412674
0.6690814452
1.0597840648
1.0745736221
0.6253487221
1.0175516502
1.0054430794
0.6294620180
1.0799238579
0.6785781186
1.0363574507
0.7046381047
0.7056171208
1.0748303830
0.6672534935
1.0618387008
1.0208606571
0.7036707515
1.0058152401
0.6910889078
0.6631718129
1.0007098329
0.9798636706
0.7443161401
0.7312057545
0.7363324100
0.7363274329
0.7311692460
0.7416107434
0.7447581423
0.7354992460
0.7372378217
0.7402834438
0.7450708260
0.7434222843
0.7402630438
0.7378151437
0.7297114823
0.7403126246
0.7323079481
0.7372447692
0.7416192943
0.7264792128
0.7273046567
0.7403798903
0.7449852356
0.7232231551
0.7301684552
0.7209818377
0.7436250413
0.7302403370
0.7193087063
0.7378352318
0.7276045222
0.7192640118
0.7227880714
0.7534690869
0.7127883102
0.7209864917
0.7323046284
0.7330992404
0.7264777170
0.7497003180
0.7098034670
0.7290893553
0.7061189522
0.7532982888
0.7072204060
0.7382263239
0.7154093365
0.7111873431
0.7178134405
0.7436329004
0.7209855538
0.7389085207
0.7368378372
0.7379520620
0.7534745610
0.7228882243
0.7820053096
0.7161023759
0.7639139764
0.7192614206
0.7510577431
0.7209681669
0.7150034341
0.7372575654
0.7826858714
0.7127983707
0.7510923093
0.7622019558
0.7194238860
0.7251577543
0.7511887483
0.7335687127
0.7360397593
0.7058930266
0.7036420883
0.7648107520
0.7234433466
0.7071407419
0.7544560988
0.7769811930
0.7061341618
0.7308423048
0.7820069003
0.8276109086
0.8202301365
0.7149754152
0.7639199451
0.7628307556
0.7371858940
0.7461723169
0.7188163800
0.7118828495
0.7724517702
0.7777187870
0.8304870176
0.8147273206
0.7446777792
0.7617799629
0.7452492099
0.7544145594
0.7878040209
0.7874621692
0.7239175722
0.7882982156
0.7763338774
0.7635208408
0.6976069138
0.8067610877
0.6934492259
0.7098866062
0.7648109179
0.8201765416
0.7770014208
0.7470756339
0.7965097396
0.7994596950
0.7939505794
0.7935672097
0.7058126022
0.7071054455
0.8110581068
0.7756119535
0.7234472700
0.8060894016
0.7628196907
0.7724454137
0.7266185716
0.7446148959
0.8028660014
0.7727597729
0.8111829519
0.8323040491
0.7388202863
0.8202761673
0.7282465701
0.7479280839
0.7963945776
0.7572020251
0.8276620620
0.8168320608
0.8202585838
0.8161827906
0.7070405213
0.8245594469
0.7939669726
0.7971005926
0.7825485732
0.7763163683
0.6829880986
0.6926816725
0.7878084508
0.7756347825
0.7656047237
0.7556643875
0.8099786175
0.8067757874
0.8201977350
0.6989549806
0.7551925392
0.7979279539
0.6934457928
0.7754358245
0.7874640073
0.7819769627
0.7006621684
0.7966053934
0.7097979077
0.8223048428
0.8028972270
0.7913886116
0.7147290899
0.7571510875
0.6872672244
0.7727427028
0.8331193844
0.7932335307
0.8277328524
0.7837452039
0.7342458807
0.8550168685
0.7986688475
0.7873952590
0.6994177575
0.8293783429
0.7221406469
0.7640412138
0.8112834766
0.8356796550
0.7803006147
0.7265487787
0.8636686406
0.7551254099
0.8111638476
0.8437072310
0.8245742066
0.7979420363
0.8273968399
0.7655792683
0.6898542629
0.8250946874
0.7825435357
0.8140670159
0.6926671447
0.8379564073
0.6830095867
0.8298170482
0.7451313439
0.8099903178
0.8277434514
0.8636340766
0.7690749911
0.8293920008
0.7124802908
0.7597957904
0.8063372171
0.7874180720
0.7267446098
0.7640054703
0.7837655971
0.6899365120
0.7065219029
0.8363225062
0.8614198594
0.8323591802
0.7682223894
0.7915370990
0.7933607558
0.7250281196
0.7751368869
0.6872639327
0.8379565368
0.7330901723
0.8135721819
0.7216295787
0.8457125853
0.8220889554
0.8370889323
0.8119143760
0.7370794587
0.8398857606
0.8548884196
0.8519816115
0.8356549437
0.8442168231
0.8015464168
0.8235495206
0.7886112038
0.8252180901
0.8583008795
0.7610521099
0.8564554336
0.8079694653
0.7690282284
0.7267445715
0.8063530537
0.8348084056
0.7256349244
0.8472503943
0.8071648348
0.7228812619
0.7526915835
0.7067869936
0.7947437962
0.7239125114
0.8186010826
0.7216366936
0.8548667637
0.8333607019
0.8418023389
0.7188225517
0.8015666851
0.8370977050
0.7820735672
0.7226641329
0.8137091169
0.8543933053
0.7209682004
0.8582714330
0.8221095368
0.8459898340
0.8442118137
0.7223366219
0.7286599850
0.6830142075
0.7881528734
0.8687756208
0.8564381911
0.8348295332
0.7241606938
0.8609937185
0.8533933394
0.8440183857
0.8012690663
0.8081602064
0.8667977086
0.7294097366
0.8474633943
0.8480744948
0.7327201650
0.7222627210
0.8667632324
0.8415262945
0.7188299090
0.7209618987
0.7113585503
0.7249291027
0.8186479847
0.8711920029
0.7286511164
0.7223992045
0.8728378400
0.7743069539
0.7949101899
0.7264933739
0.8567110376
0.7036241747
0.7257478939
0.6947548968
0.8495012367
0.7284260791
0.7157334729
0.8534873481
0.8707239726
0.7266086293
0.8733964139
0.8440141295
0.7196759368
0.8628519152
0.8685185536
0.7648412564
0.8533670629
0.8631943209
0.8638630310
0.8734286788
0.7346701180
0.7252825561
0.8449599097
0.7327113149
0.7883492404
0.7241492436
0.8687616568
0.6830653298
0.8474567250
0.8665333933
0.8549343148
0.8609825550
0.8725658729
0.7247278780
0.8734985917
0.7430614567
0.7492397525
0.7257463836
0.7223906642
0.8622621562
0.8705383537
0.8743230456
0.6989864997
0.8705337026
0.7120524259
0.7281646362
0.8728187201
0.7284171709
0.7744360663
0.7400189445
0.7275923080
0.8639128905
0.8534772447
0.6941603645
0.8520773372
0.7065750897
0.8711693273
0.7290893291
0.7217731129
0.8652378222
0.8733951611
0.7252803845
0.7356022945
0.8684996288
0.7305356505
0.7346669498
0.7649764413
0.7485049147
0.8631738447
0.8723644349
0.7255459698
0.8549282563
0.6821758163
0.7175644566
0.8763381859
0.6902867290
0.7290782514
0.8622312489
0.8698210519
0.7399962991
0.8743034549
0.8520734502
0.8685194609
0.7349387157
0.8705165432
0.7493146490
0.7301823947
0.8770882725
0.8603270118
0.7277159955
0.8643223226
0.6753802553
0.8734412736
0.7368734565
0.7043385905
0.8754364677
0.7375431937
0.7438163156
0.6847239242
0.8755262537
0.7356943524
0.7230244055
0.7808871241
0.7305247284
0.6705317126
0.8746848714
0.8766438872
0.7296542695
0.7349240002
0.7301722789
0.7463460934
0.8734200841
0.8684943725
0.7486826746
0.8683495589
0.6756668539
0.8603204456
0.8763389401
0.7176209772
0.8008951832
0.8013045476
0.8726859003
0.7437815210
0.6694559003
0.6684513470
0.8754669001
0.8754313303
0.7727477660
0.8746794854
0.8750673976
0.8748779083
0.6883976770
0.7296814179
0.8755308121
0.6737494366
0.7825830146
0.7030562371
0.7295318902
0.7184127205
0.6631766842
0.8012486922
0.6466943632
0.7634827553
0.6813560273
0.7316254521
0.7296455863
0.6475776686
0.7686688101
0.8241917558
0.8683107500
0.7306391044
0.8383811395
0.7114073679
0.7280407274
0.6412382180
0.6927971107
0.7463303816
0.6575905844
0.8008393021
0.8208672846
0.7486407116
0.8749505009
0.6397415000
0.6622353631
0.8750563371
0.8383859541
0.6691621470
0.8748723381
0.8029413479
0.6845526437
0.8754031873
0.8611625939
0.8697347182
0.7513811344
0.6513237662
0.8512295463
0.8747564771
0.8224922224
0.7188673547
0.8757263069
0.8683598220
0.8730409637
0.7793081152
0.6556543401
0.6943760179
0.7308726025
0.7850315627
0.6677248643
0.6269389101
0.7315901909
0.6467408353
0.7295137499
0.7752842647
0.6237426573
0.7144828482
0.7859583836
0.7634380571
0.6867782808
0.7212474115
0.7063324973
0.7954766381
0.6650386697
0.7050624410
0.7469401121
0.8241295835
0.6818373089
0.6389593079
0.7538117644
0.6486422728
0.6189291877
0.7258268846
0.8449078109
0.6971071821
0.7280110213
0.7137966214
0.8383123291
0.8278099085
0.6529882913
0.6180532928
0.6644179766
0.7386240081
0.7980188051
0.7325879033
0.8683241072
0.8736810592
0.8763588139
0.6675055514
0.8751111401
0.8702829822
0.8376122108
0.8616220229
0.6757542431
0.8749403827
0.8541890635
0.7881142933
0.8101149127
0.6297846614
0.7020660154
0.7709263973
0.8199903150
0.6996181490
0.8632282460
0.8696992870
0.8765158231
0.6397776331
0.8755396723
0.8738675398
0.8512622807
0.8690410832
0.8423756791
0.7628781593
0.6857713482
0.7288762179
0.8012392263
0.7752205735
0.7854023236
0.6984678640
0.6351655682
0.6042728758
0.7097508800
0.6237670316
0.7174446063
0.6547700115
0.6083794742
0.6741809087
0.7308291514
0.6984149620
0.7458154596
0.8448360192
0.8465518494
0.7082559904
0.6469769767
0.6003059249
0.7230418577
0.6266332355
0.7257880012
0.6710791348
0.6218718992
0.6870549129
0.7569794592
0.6479045785
0.7814022061
0.7279442160
0.8758686887
0.6462015121
0.8631059350
0.8260540186
0.6379035382
0.8541884225
0.8690244598
0.8717075640
0.8779060364
0.6021652001
0.6604060520
0.7944620558
0.7175621947
0.8377843654
0.8744358702
0.6877982569
0.7518815246
0.7641658121
0.8763751420
0.6180112261
0.8706880145
0.8062144548
0.8417802032
0.8635946847
0.8754841941
0.8780853103
0.6143571983
0.8187947145
0.6804787622
0.8523253933
0.8702587347
0.8888757559
0.7459257161
0.5931349229
0.8574732959
0.6903924940
0.7288326942
0.8896333358
0.8943732906
0.6443650004
0.7477085647
0.5953176335
0.6616671845
0.8598271232
0.8798964285
0.8948696055
0.8021159591
0.6159612914
0.6042887600
0.7052554237
0.6783594995
0.7133934537
0.6872084258
0.7257565061
0.8126176120
0.7817274717
0.8098652384
0.8849380519
0.7263028599
0.8848550238
0.7122192197
0.5890039615
0.8421787707
0.7021704312
0.7573023846
0.8881406931
0.8981498309
0.6621547819
0.7767390311
0.6090164019
0.6768813216
0.8749769923
0.8713587745
0.8920749066
0.8464820424
0.6297989219
0.6062508149
0.7197788447
0.6925284187
0.7230039301
0.6570661444
0.7522652793
0.7878993006
0.8416090150
0.8382707643
0.8909765123
0.7431912981
0.6513538693
0.8803719336
0.5972435586
0.8252742025
0.6010943693
0.8742814516
0.7941753971
0.8758840209
0.7421643808
0.7431224135
0.6943439532
0.8660776318
0.7007812021
0.6184993409
0.6406166471
0.8706920921
0.6291793721
0.6132892290
0.8552411538
0.6180050321
0.8773993622
0.6261360318
0.8400927763
0.6455302676
0.7038753650
0.7756703172
0.6641421694
0.7225552205
0.6707813063
0.8803170972
0.6115766606
0.8033749679
0.6282951825
0.8782112933
0.8200629473
0.8717009072
0.7701516102
0.7689961908
0.7034278322
0.8736082473
0.6969687133
0.6120113633
0.6804296135
0.8649392021
0.6021672723
0.6300754674
0.8421939590
0.6031268700
0.8778292908
0.8551376362
0.6645149951
0.7420817233
0.6510501499
0.7613865243
0.6797629468
0.9271086966
0.8495117490
0.8784464018
0.8441351283
0.7476791467
0.8190279175
0.8753446818
0.6833625363
0.8875500757
0.9125742425
0.8721540439
0.8875482312
0.9629443324
0.6512856581
0.8593874235
0.6967546772
0.7257471924
0.7517354902
0.6425800111
0.8577475886
0.7093977656
0.8795751603
0.8948771265
0.8073208602
0.9113230271
0.8593844974
0.8988363165
0.8832479807
0.7989765943
0.6263575165
0.8849303669
0.6013546620
0.6762083094
0.7636598917
0.9171189164
0.9111009326
0.7517142902
0.8665611619
0.9084451631
0.8598128208
0.8943648897
0.9260162574
0.7262637295
0.5931481923
0.8098422074
0.8186682329
0.8975161086
0.7119424000
0.9280700659
0.8627121465
0.8862555372
0.8820011085
0.8303327024
0.7299759531
0.7981513353
0.8977702224
0.6966393285
0.8896476408
0.9264816200
0.8783722219
0.9452363165
0.6682081554
0.8708759190
0.7386565448
0.7095915480
0.7095975312
0.8547686173
0.7197435973
0.8857408426
0.8955942413
0.8314260722
0.9037988773
0.8835375492
0.8821043706
0.8415464588
0.6571855965
0.8076708116
0.8749643157
0.6162533842
0.6425771289
0.9120398219
0.9079104234
0.7803594603
0.8421667682
0.9042990377
0.8382505122
0.8909703826
0.9283733608
0.7553395303
0.5918088751
0.7767068702
0.8382871907
0.6787115625
0.8792647679
0.9751752799
0.9500273686
0.8736224600
0.6335013579
0.7195480297
0.8264527670
0.6969249685
0.9144882161
0.7763113882
0.6954791347
0.5999418843
0.9550519741
0.7234492650
0.7430985915
0.7061934389
0.8782895553
0.6808351418
0.6451296275
0.9723683350
0.8578060474
0.7087534486
0.9498324162
0.9591577744
0.6513670440
0.6989372245
0.6020858264
0.6020973578
0.6089157539
0.6199265591
0.7730261197
0.9339073378
0.6445944346
0.6018335848
0.7918709670
0.7591707261
0.6276634667
0.9603599698
0.7205797393
0.7045183183
0.5865530450
0.7273134233
0.9439821375
0.6928341172
0.8800057820
0.9756296913
0.9482526859
0.8675929995
0.7130950882
0.8031011013
0.7033901732
0.9150713383
0.6544107396
0.6018467773
0.9451656884
0.7513653884
0.7689736194
0.7165523717
0.8742887275
0.6864419800
0.6627829307
0.9649650889
0.8443554699
0.7205547584
0.9642309421
0.9517170173
0.6623594513
0.6943134408
0.6120270551
0.6689521190
0.6266702263
0.5972468842
0.7364949372
0.9335601942
0.6641533801
0.8329757480
0.7701249373
0.7030576552
0.5943159600
0.9299524980
0.7303738726
0.7087822153
0.5941076970
0.9258467078
0.5982370145
0.7234107317
0.6451260500
0.9629153865
0.7918019021
0.9125468974
0.8919918805
0.5943231586
0.6104993849
0.8049557794
0.7008995618
0.7667180088
0.6556222100
0.9068562378
0.6378101924
0.8148377369
0.7251653957
0.5941384762
0.6229070011
0.8148021769
0.7878886321
0.8577221041
0.6984843051
0.8795727339
0.8881695000
1.0381816902
0.6570570954
0.9068407869
0.6677276567
0.6724638165
0.9270888588
0.8713739492
0.9524828842
0.7098034534
0.6797833377
0.7207319636
0.8753118818
0.8363256259
0.8203503365
0.7156556998
0.8967483007
0.6143808986
0.7034615584
0.8880477353
0.9323540069
0.7522485923
0.8961275598
0.9230845983
0.5935121713
0.7062762332
0.8961079856
0.9072133095
0.6786889387
0.5982594156
0.8663173545
0.6997736332
0.7061638816
0.8930670779
0.5926062847
0.7513078950
0.6627679051
0.9644899883
0.8329221033
0.8977386784
0.8203327859
0.8766706153
0.5865736512
0.6041544813
0.8151832646
0.6949827409
0.8042091371
0.6535708370
0.6559004662
0.7190098944
0.6089418906
0.6280512546
0.7544813884
0.8415391745
0.8927564923
0.7055628614
0.8949923724
0.9322776690
0.9084334312
0.6760091409
0.6868250273
0.9218342801
0.6357693944
0.7015933755
0.7343459198
0.8547384292
0.9231034680
0.9645213371
1.0106897775
0.5998968745
0.7045782101
0.9280514176
0.9220606839
0.6026575381
0.7005333827
0.9068056937
0.9259956240
0.6928064481
0.5932687353
0.8854415719
0.7137567023
0.7165143963
0.8627536676
0.6266846299