<VTKFile type="UnstructuredGrid" version="0.1">
	<UnstructuredGrid>
		<Piece NumberOfPoints="1862" NumberOfCells="3498">
			<CellData>
				<DataArray type="Int32" Name="type" NumberOfComponents="1" Format="ascii">
0
0
0
0
0
0
0
0
0
0
0
0
0
0
0
0
1
0
0
1
0
0
0
0
0
0
0
0
0
0
0
0
0
1
0
0
0
0
0
0
0
0
0
0
0
0
0
0
0
0
1
0
0
0
0
0
0
0
0
0
0
1
0
0
0
0
0
0
0
0
0
0
0
0
0
0
0
0
0
0
0
0
0
0
0
0
0
0
0
0
0
0
0
0
0
0
0
0
0
0
0
0
0
0
0
0
0
0
0
0
0
0
0
0
0
0
0
0
0
0
0
0
0
1
0
0
0
0
0
0
0
0
0
0
0
0
0
0
0
0
0
0
0
0
0
0
0
0
0
0
0
1
0
1
1
0
0
0
0
0
0
0
0
0
0
0
0
0
1
0
1
0
0
0
0
1
0
0
0
0
0
0
0
0
1
1
0
0
0
0
0
1
0
0
0
0
0
0
0
0
1
0
0
0
0
0
0
0
0
0
0
0
0
0
0
0
0
0
0
0
0
0
0
0
0
0
0
0
0
0
0
0
0
1
0
0
0
0
0
0
0
0
0
0
0
0
0
0
0
0
0
0
0
0
0
0
0
0
0
0
0
0
0
0
0
0
0
0
0
0
0
0
0
0
0
0
0
0
0
0
0
1
0
0
0
0
0
0
0
0
0
0
0
0
0
0
0
0
0
0
0
0
0
0
0
0
0
0
0
0
0
0
0
0
0
0
0
0
0
0
0
0
0
0
0
0
0
0
0
0
0
0
1
0
0
0
0
0
0
0
0
0
0
0
0
0
0
0
0
0
0
0
0
0
0
0
0
0
0
0
0
0
0
0
0
0
0
0
0
0
0
0
0
0
0
0
0
0
0
0
0
0
0
0
0
0
0
0
0
0
1
0
0
0
0
0
0
0
0
0
0
0
0
0
0
0
0
0
0
0
0
0
0
0
0
0
0
0
0
0
0
0
0
0
0
0
0
0
0
0
0
0
0
0
0
0
0
0
0
0
0
0
0
0
0
0
0
0
0
0
0
0
0
0
0
0
0
0
0
0
0
0
0
0
0
0
0
0
0
0
0
0
0
0
0
0
0
0
0
0
0
0
0
0
0
0
0
0
0
0
0
0
0
0
0
0
0
0
0
0
0
0
0
0
0
0
0
0
0
0
0
0
0
0
0
0
0
0
0
0
0
0
0
1
0
0
0
0
0
0
0
0
0
0
0
0
0
0
0
0
0
0
0
1
0
0
0
0
0
0
0
0
0
0
0
0
0
0
0
0
0
0
0
0
0
0
0
0
0
0
0
0
0
0
0
0
0
0
0
0
0
0
0
0
0
0
0
0
0
0
0
0
0
0
0
0
0
1
0
0
0
0
0
0
0
0
0
0
0
0
0
0
0
0
0
0
0
0
0
0
0
1
0
0
0
0
0
0
0
0
0
0
0
0
0
0
0
0
0
0
0
1
0
0
0
1
0
0
0
0
0
0
0
0
0
0
0
0
0
0
0
0
0
0
0
0
0
0
0
0
0
1
0
0
0
0
0
0
0
1
0
0
0
0
0
0
0
0
0
0
0
0
0
0
0
0
0
0
0
0
0
0
0
0
0
0
1
0
0
0
0
0
0
0
1
0
0
0
0
0
0
1
0
0
0
0
0
0
0
0
0
0
0
0
0
0
0
0
0
0
0
0
0
0
0
0
0
0
0
0
0
0
0
0
0
0
0
0
0
0
1
0
0
0
0
0
1
0
0
0
0
0
0
0
1
0
0
0
0
0
0
0
0
0
0
0
0
0
1
0
0
0
0
0
0
0
0
0
0
0
0
0
0
0
0
0
0
0
0
0
0
0
0
0
0
0
0
0
0
0
0
0
0
0
0
0
0
0
0
0
0
0
0
0
0
0
0
0
0
0
0
0
1
0
0
0
0
0
0
0
0
0
0
0
0
0
0
0
0
0
0
0
1
0
0
0
0
0
0
0
0
0
1
0
0
0
0
0
0
0
0
0
0
0
0
0
0
0
0
0
0
0
0
0
0
0
0
0
0
0
0
0
1
0
1
0
0
0
0
0
0
0
0
0
0
0
0
0
0
0
0
0
0
0
0
0
0
0
0
0
0
0
1
0
0
0
1
0
0
0
0
0
0
0
0
0
0
0
0
0
0
0
0
0
0
0
0
0
0
0
0
0
0
0
0
1
0
0
0
0
0
0
0
0
0
0
0
0
0
0
0
0
0
0
0
0
0
0
0
0
0
1
0
0
0
0
0
0
0
0
0
0
0
0
0
0
0
0
0
0
0
0
0
0
0
1
0
0
0
0
0
0
1
0
0
0
0
0
0
0
0
0
0
0
1
0
0
0
0
0
0
0
0
0
0
0
0
0
0
0
0
0
0
0
0
1
0
0
0
0
0
0
0
0
0
0
0
1
0
0
0
0
0
0
0
0
0
0
0
0
0
0
0
0
0
0
0
0
0
1
0
0
0
0
0
0
0
0
0
1
1
0
1
0
1
0
0
0
0
0
0
0
0
0
0
0
1
0
0
0
0
0
1
1
0
0
0
0
0
0
1
0
0
0
0
0
1
1
1
0
0
0
0
0
0
0
0
0
0
0
0
1
1
0
0
1
0
0
0
0
0
1
0
0
0
1
0
1
0
0
0
0
0
0
0
1
0
0
0
0
0
0
0
1
0
0
1
0
0
0
0
0
0
0
0
0
0
0
0
0
0
0
1
0
0
0
0
0
0
0
0
0
0
0
0
0
0
0
0
0
0
0
0
0
0
0
0
0
0
0
0
0
0
0
0
0
0
0
0
1
0
0
0
0
0
0
1
0
0
0
1
0
0
0
0
0
0
0
0
0
0
0
1
0
0
0
0
0
0
0
0
0
0
0
0
0
0
0
0
0
0
0
0
0
0
0
0
0
0
0
0
0
0
0
0
0
0
0
0
0
0
0
0
1
1
0
0
0
0
0
0
0
0
0
0
0
0
0
1
0
0
0
0
0
0
0
0
0
0
0
0
0
0
0
0
0
0
0
0
0
0
0
0
0
0
0
0
0
0
0
0
0
0
0
0
0
0
0
0
0
0
0
0
0
0
0
0
0
0
0
0
0
0
0
0
0
0
0
0
0
0
0
0
0
0
0
0
0
0
0
0
1
1
0
0
0
0
0
0
0
0
1
0
0
0
0
0
0
0
0
0
0
0
0
0
0
0
0
0
0
0
0
0
0
0
1
0
0
0
0
0
0
0
0
0
0
0
0
0
0
0
0
1
0
0
0
0
0
0
0
0
0
0
0
0
0
0
0
0
0
0
0
0
0
0
0
0
0
0
0
0
0
0
0
0
0
0
0
0
0
0
0
0
0
0
0
0
0
0
0
0
0
0
0
0
0
0
0
0
0
0
0
0
0
0
0
0
0
0
0
0
0
0
0
0
0
0
0
0
0
0
0
0
0
0
0
0
0
0
0
0
0
0
1
1
0
0
0
0
0
1
0
0
0
0
0
0
0
0
0
0
0
0
1
0
0
0
0
0
0
0
0
0
0
0
0
0
0
0
0
0
0
0
0
0
0
0
0
0
0
0
0
0
0
0
0
0
0
0
0
0
0
0
0
0
0
0
0
0
0
0
0
0
0
0
0
0
1
0
1
0
0
0
0
0
0
0
0
0
0
0
0
0
0
0
0
0
0
1
0
0
0
0
0
0
0
0
0
0
0
0
0
0
0
0
0
0
0
0
0
0
0
0
0
0
0
0
0
0
0
0
0
0
0
0
0
0
0
0
0
0
0
0
0
0
0
0
0
0
0
0
0
0
0
0
0
0
0
0
0
0
0
0
0
0
0
0
0
0
1
0
0
0
0
0
0
0
0
0
0
1
0
0
0
0
0
0
0
0
0
0
0
0
0
0
0
0
0
0
0
0
0
0
0
0
0
0
0
0
0
0
0
0
0
0
0
0
0
1
0
0
0
0
0
0
0
0
0
0
0
0
0
0
0
0
0
0
0
0
0
0
0
0
0
0
0
0
0
0
0
0
0
0
0
0
0
0
0
0
0
0
0
0
0
0
0
0
0
0
0
0
0
0
0
0
0
0
0
0
0
0
0
0
0
0
0
0
0
0
0
0
0
0
0
0
0
0
0
0
0
1
0
0
0
0
0
0
0
0
0
0
0
0
0
0
0
0
0
0
0
0
0
0
0
0
0
0
0
0
0
0
0
0
0
0
0
0
0
0
0
0
0
0
0
0
0
0
0
0
0
0
0
0
0
0
0
0
0
0
0
0
0
0
0
0
0
0
0
0
0
0
0
0
0
0
0
0
0
0
0
0
0
0
0
0
0
0
0
0
0
0
0
0
0
0
0
0
0
0
0
0
0
0
0
0
0
0
0
0
0
0
0
0
0
0
0
0
0
0
0
0
0
0
0
1
0
0
0
0
0
0
0
0
0
0
0
0
0
0
0
0
0
0
0
0
0
0
0
0
0
0
0
0
0
0
0
0
0
0
0
0
0
0
0
0
0
0
0
0
0
0
0
0
0
0
0
0
0
0
0
0
0
0
0
0
0
0
0
0
0
0
0
0
0
0
0
0
0
0
0
0
0
0
0
0
0
1
0
0
0
0
0
0
0
1
0
0
0
0
0
0
0
0
0
0
0
0
0
0
0
0
0
0
0
0
0
0
0
0
0
0
0
0
0
0
0
0
0
0
0
0
0
1
0
0
0
0
0
0
0
0
0
0
0
0
0
0
0
0
0
0
0
0
0
1
0
0
0
0
0
0
0
0
0
0
0
0
1
1
0
0
0
0
0
0
0
0
0
0
0
0
0
0
0
1
1
0
1
0
0
0
0
0
0
0
0
0
1
0
0
0
0
0
0
1
0
0
0
0
0
0
0
0
0
0
1
0
0
0
0
1
0
1
0
0
0
0
0
0
0
1
0
0
0
1
0
0
0
1
0
1
1
0
0
1
1
0
0
0
1
0
0
0
1
0
0
0
0
0
0
0
0
0
1
0
0
0
0
0
0
1
0
0
0
0
0
0
0
0
0
0
0
0
0
0
0
0
0
0
0
0
0
0
0
0
0
0
0
1
0
0
1
0
0
0
0
0
0
0
0
0
0
0
0
0
0
0
0
0
0
1
0
0
1
0
0
0
0
0
0
0
0
0
0
0
1
0
0
1
0
0
0
0
0
0
0
0
0
0
0
1
1
0
0
0
0
0
0
0
0
0
0
0
0
1
0
0
0
0
0
0
0
0
0
0
0
0
0
0
0
0
0
1
0
0
0
0
0
0
0
0
0
0
0
0
0
0
0
0
0
1
0
0
0
0
0
0
0
0
0
0
0
0
0
0
0
0
0
0
0
0
0
0
0
0
0
0
0
0
0
0
0
0
0
0
0
0
0
0
0
0
1
0
0
0
0
0
0
0
0
0
0
0
0
0
0
0
0
0
0
0
0
0
0
0
0
0
0
0
0
0
0
0
0
0
0
0
0
0
0
0
0
0
0
0
0
0
1
0
0
0
0
0
0
0
0
0
0
0
0
0
0
0
0
0
0
0
0
0
0
0
0
0
0
0
0
0
0
0
0
0
0
0
0
0
0
0
0
0
0
0
0
0
0
0
1
0
0
0
0
0
0
0
0
0
0
1
0
0
0
0
0
0
0
0
0
0
0
0
0
0
0
1
0
0
1
0
0
0
0
0
0
0
0
0
0
0
0
0
0
0
0
0
0
0
0
0
0
0
1
0
0
0
0
0
0
0
0
0
0
0
0
0
0
0
0
0
0
0
0
0
0
0
0
0
0
0
0
0
0
0
0
0
0
0
1
0
0
0
0
0
0
0
0
0
0
0
0
0
0
0
0
0
0
0
0
0
0
0
0
0
0
0
0
0
0
0
0
0
0
0
0
0
0
0
0
0
0
0
0
0
0
0
0
0
0
0
0
0
0
0
0
0
0
0
0
0
0
0
0
0
0
0
0
0
0
0
0
0
0
0
0
1
0
0
0
0
0
0
0
0
0
0
0
0
0
0
0
0
0
0
0
0
0
0
0
0
0
0
0
0
0
0
0
0
0
0
0
0
0
0
0
1
0
0
0
0
0
0
0
0
0
0
0
0
1
1
0
0
0
0
0
0
0
0
0
0
0
0
0
0
0
0
0
0
0
0
0
0
0
0
0
0
0
0
0
0
0
0
0
0
0
0
0
0
0
0
0
0
0
0
0
0
0
0
0
0
0
0
0
0
0
0
0
0
0
0
0
0
0
0
0
0
0
0
0
0
0
0
0
0
0
0
0
0
0
0
0
0
0
0
0
0
0
0
0
0
0
0
0
0
0
0
0
0
0
0
0
1
0
1
0
0
0
0
0
0
0
1
1
1
1
0
0
0
0
0
0
0
0
0
0
0
0
0
0
0
0
0
0
0
0
0
0
0
0
0
0
0
0
1
1
0
0
0
0
0
0
0
0
0
0
0
0
0
0
0
0
0
0
1
0
0
0
0
0
0
0
1
1
0
1
1
0
0
1
0
0
0
0
0
0
0
1
0
1
0
0
0
0
0
0
0
0
0
0
0
0
0
0
0
0
0
0
0
0
0
0
0
0
0
0
0
1
1
0
0
0
1
1
0
0
0
0
1
0
0
1
0
1
0
0
0
0
0
1
0
0
0
1
0
0
0
0
0
0
0
0
0
0
0
0
0
0
0
0
0
0
0
0
0
0
0
0
0
0
0
1
0
0
0
0
0
0
1
0
0
0
0
0
0
0
0
0
0
0
0
0
0
0
0
0
0
0
0
0
0
0
0
0
0
0
0
0
1
0
1
0
0
0
0
0
0
0
1
0
0
0
0
0
0
0
0
0
0
0
1
0
0
0
0
0
0
0
0
0
1
0
0
0
0
0
0
0
1
0
0
0
0
0
0
0
1
0
0
0
0
0
0
0
0
0
0
0
0
0
0
0
0
0
0
0
1
0
1
0
0
0
0
0
1
0
0
0
0
0
0
0
0
0
0
0
0
0
0
0
0
0
0
0
0
0
0
0
0
0
1
0
1
0
0
0
0
0
0
0
0
0
1
0
0
0
0
0
1
0
0
0
0
0
0
0
0
0
0
0
0
0
0
0
1
0
0
0
0
0
0
0
0
1
0
0
0
0
0
0
0
0
0
0
0
0
0
0
0
0
0
0
0
0
0
0
0
0
0
0
0
0
0
0
1
0
0
0
0
0
0
0
0
0
0
0
0
0
0
0
0
1
0
0
0
0
0
0
0
0
1
0
0
0
0
0
0
0
0
0
1
0
0
0
0
0
1
0
0
0
0
0
0
0
0
0
0
0
0
0
0
0
0
0
0
0
1
0
0
0
0
0
0
1
0
0
0
0
0
0
0
0
1
0
0
0
0
0
0
0
0
0
0
0
0
0
0
1
0
0
1
0
0
0
1
0
0
0
0
0
0
0
0
0
0
0
0
0
0
0
0
1
0
0
0
0
0
0
0
0
0
0
1
0
1
0
0
0
0
0
0
1
0
0
0
0
0
0
0
0
0
0
0
0
0
0
0
0
0
0
0
0
0
0
0
0
0
0
0
1
1
0
0
0
0
0
0
1
0
0
0
0
0
0
0
0
0
0
0
0
0
1
0
0
0
0
0
0
0
1
0
0
0
0
0
0
0
0
0
0
0
0
0
0
0
0
0
0
0
0
0
0
0
0
0
0
0
1
0
0
0
0
0
0
0
0
0
0
1
0
0
1
0
0
0
0
0
0
0
0
0
0
0
0
0
0
0
0
0
0
0
0
0
0
0
0
0
0
0
0
0
1
0
0
0
0
0
0
0
1
0
0
0
0
0
0
0
1
0
0
0
0
1
0
0
0
0
0
0
0
0
0
0
0
1
0
1
0
0
0
1
0
				</DataArray>
				<DataArray type="Float64" Name="h" NumberOfComponents="1" Format="ascii">
0.9900762650
0.9901449085
0.9708887301
0.9893598444
0.9697287797
0.9761077138
0.9813538049
0.9960465637
0.9861779230
1.0052535775
0.9945805097
0.9774844709
0.9919178014
1.0010758894
0.9949001570
0.9903855358
0.9841412325
1.0020483627
0.9868812550
0.9972954977
0.9594585537
0.9845593764
0.9748922357
0.9602567057
0.9902467231
0.9954849839
0.9666773560
0.9101198660
0.9673015914
1.0043003968
1.0020579597
0.9767634274
0.9798176431
0.9684660586
0.9194901487
0.9534983281
0.9384804796
0.9638683926
0.9054306422
0.9554879354
0.9662931967
0.9133460559
0.9721498452
0.9566799643
0.9505415231
0.9278816388
0.9672801692
0.9068784933
0.8449274636
0.8372121173
0.9492697002
0.9437260507
0.9574541087
0.8628547319
0.9263460891
0.9580904561
0.9289894737
0.8869357298
0.8788733654
0.8753524002
0.8726779741
0.8770669861
0.8501233095
0.9421801261
0.9424282214
0.8770900674
0.8281958747
0.8434242641
0.8751526716
0.8806827674
0.8773989487
0.9234292080
0.9486623365
0.8585277125
0.8697935834
0.8664310210
0.8864337638
0.8682674574
0.8959394415
0.8834790355
0.8670717413
0.8650771336
0.8482748113
0.8353288798
0.8974710279
0.8533735784
0.8649086804
0.8254343785
0.8611925914
0.8447489468
0.8619656159
0.8684812733
0.8667925347
0.8377804300
0.8445150165
0.8564596476
0.8211034770
0.8981414280
0.8872614421
0.8649444849
0.8478821942
0.8673904585
0.8417124727
0.8950578032
1.0105949181
0.8187544569
0.8246251550
0.8475265263
0.8686209184
0.8488448001
0.8344022272
0.8426179835
0.8613862065
0.8571592750
0.8439851082
0.8594155295
0.8468694360
1.0114580498
0.8560373494
0.8488152237
1.0122403921
0.8276676207
0.8350943791
1.0239024049
0.8559348983
0.8505503748
0.8492185358
1.0241383427
0.8616223644
0.8571833045
0.8605523721
0.8287947117
0.8526805710
0.8621504604
1.0128212508
0.8602973862
0.9969029836
0.8596283040
0.8653399552
0.9789036506
1.0226397528
1.0197216550
0.8594624121
0.9677167307
0.8372898935
0.8630759530
0.9872949997
0.8541451677
1.0196865281
0.8527593640
0.9998128813
0.8599117629
0.8581011888
0.8554297301
0.8670274952
0.8571111732
0.8573041674
1.0148619134
0.8537805545
1.0288342990
0.9729473994
0.8557163312
0.9913114703
1.0229186232
1.0189199372
0.8537628113
0.9519332591
0.9836935558
1.0296505832
0.8552228124
0.8579110331
1.0322571421
0.8557285143
1.0132574204
0.9410197499
0.8545844363
0.9586414258
0.8488944542
0.8546203664
1.0209379080
0.8567677251
0.9188489131
1.0269717443
0.8199120706
1.0337793624
1.0358215335
0.9325221442
0.8536694399
1.0307841546
1.0358892673
0.8929378960
0.8544475384
1.0316831677
0.9077345042
0.8547048800
0.8505880598
1.0127814394
0.8632659665
0.8800213044
0.8488167348
1.0367556379
0.8077070393
1.0358074547
0.8526814974
0.8325651999
1.0171384344
0.9775702166
0.9952716261
0.8491103782
0.9530042893
0.8899444438
1.0331251519
1.0150803109
1.0183842442
0.9872484022
0.8620345153
0.9667569036
1.0106821944
0.9148211424
1.0253810231
0.8194066161
0.8321566107
0.9358635752
0.8099517244
0.7955841240
0.8465844012
0.8445970283
0.7933854387
0.8056359779
0.8400551856
0.8500650065
0.8215200782
0.7913306900
0.8470153912
0.8466944497
0.7998018248
0.8749292431
0.9655250210
1.0262706688
0.9380627385
0.8730031735
0.9845878250
1.0071999972
0.9427540287
0.9900875628
0.9708133786
1.0123020400
0.9010584954
0.9755932929
1.0003401686
0.9533240361
0.8978040096
1.0053099754
0.8471437866
0.8459804134
1.0085865401
0.9584031965
0.9810801080
1.0183879935
0.8137392663
0.9195593053
0.7845623203
0.7790402736
0.7950313588
0.7871624543
0.8447789801
0.8419827066
0.8060275564
0.8444643559
0.8195558666
0.8367782294
0.9237259586
0.8350513362
0.7919546787
0.8017432687
0.7952193802
0.7785670822
0.7850206254
0.8072604127
0.7941664939
0.8411428618
0.8424672997
0.8436991208
0.8417808021
0.8298109311
0.8255487873
0.7868549767
0.9528061383
1.0017409773
0.9960759685
0.9575558106
0.8590435285
0.9727805791
0.9779713708
0.9233635595
0.8581154360
0.9269265661
0.9636294660
0.9887006878
1.0085940133
0.9973712951
0.9685857359
0.8842066338
0.8340047503
0.8334449458
0.9395255296
0.8820317868
0.9437567224
0.9946905447
0.7777456768
0.7780370130
0.7691587142
0.8391948762
0.7973501618
0.8271720617
0.7987293168
0.9043221803
0.8233435358
0.8361813156
0.9070829252
0.7819342489
0.7763091727
0.8063233058
0.8386524896
0.7707433892
0.7741320252
0.7732734700
0.8383792016
0.7868048991
0.8116993550
0.8318723906
0.8354370283
0.8368308049
0.7885019560
0.7935514427
0.7847900976
0.8181098738
0.9440463496
0.8167206698
0.9100136972
0.8475376052
0.9120843830
0.9902652209
0.8458223749
0.9609193014
0.9402232672
0.9658156200
0.9841809144
0.8043686717
0.7764347542
0.8261243976
0.7739736678
0.9559723389
0.9828279551
0.8095193861
0.9264003263
0.7771088543
0.8695512738
0.9294430959
0.7842055557
0.7881772318
0.8083660116
0.9973812097
0.8699877687
0.8232405865
0.9515521426
0.7950538201
0.7846920915
0.7690066058
0.9853719907
0.7759263679
0.7959207567
0.9765875029
0.8296976473
0.7855143993
0.7728882555
0.8315623372
0.9393291490
0.8169110125
0.7752317402
0.7926139615
0.8107708410
0.8328336663
0.8905807734
0.7946106433
0.8921062208
0.7706562219
0.7683042502
0.7646338594
0.8851558511
0.8303035360
0.7868385059
0.7749753594
0.8186065724
0.8282463913
0.7828027096
0.9305680662
0.9151508877
0.9066243956
0.8448889903
0.7675448288
0.8211946245
0.8588582479
0.7981484412
0.8312314837
0.8320208291
0.8066135424
0.7805905035
0.7665873331
0.8723895869
0.7663958686
0.7846499859
0.7813804305
0.7817842489
0.9311964639
0.8100823717
0.8016938099
0.8988240127
0.7803937330
0.7720647194
0.7980015214
0.8073588985
0.9537174878
0.7967110258
0.8081559859
0.7669362712
0.8176233644
0.9781250852
0.7894916048
0.8376141426
0.7711523376
0.8095202454
0.7788015668
0.8020011275
0.7752788123
0.7700096874
0.8046300815
0.7911488932
0.8162182346
0.8007111379
0.7867917223
0.7904553537
0.9435525672
0.7953704576
0.7930228055
0.9163689525
0.7664674357
0.7890111925
0.7728499692
0.7940849053
0.7857323824
0.8186702787
0.9853831961
0.7811014954
0.8586742931
0.8073588967
0.8084575208
0.8034125995
0.7821967076
0.8094619506
0.9697718594
0.8176953315
0.9194634185
0.8257990783
0.8794644115
0.7763352491
0.7646317571
0.7697604513
0.8350952916
0.9419897853
0.8238108180
0.8885644630
0.7993564088
0.8513355750
0.7911974180
0.7639754173
0.8146831112
0.8749976336
0.9652235798
0.9342241576
0.9286488668
0.8153991654
0.9317568963
0.8248523693
0.8193236346
0.8142397216
0.8105236717
0.9224171609
0.7683895460
0.9093135922
0.7939364530
0.7791268157
0.8184617364
0.9580425222
0.9305850768
0.8966331529
0.9050977841
0.8223463129
0.7873248435
0.9213098495
0.8063489607
0.8085327347
0.8868166814
0.9066324736
0.8448913134
0.8703852826
0.7645369456
0.9731384574
0.8010999742
0.7957543496
0.9224066280
0.8326162098
0.7971238863
0.8885725246
0.8027310785
0.9652319876
0.7933537935
0.7924770826
0.9597977764
0.8890035002
0.8326232970
0.7835920127
0.7909735808
0.8113600242
0.9179536309
0.8009321961
0.9174876138
0.7891694777
0.8112562250
0.8363507369
0.7895485228
0.9194722787
0.7831544234
0.9388918041
0.9419924021
0.8460755645
0.9580487457
0.9051066613
0.9731505898
0.8112575159
0.8154050871
0.8586037032
0.8985681170
0.9673494986
0.8812899942
0.9044533484
0.9232623630
0.8513427231
0.8704673185
0.9051362319
0.8103973145
0.8905519814
0.9294068687
0.8213209203
0.9533526703
0.8107519716
0.8199551396
0.9104891904
0.7989800052
0.8065169751
0.8540804903
0.9151854677
0.8034289569
0.9317697253
0.8334108159
0.7911989905
0.8703925177
0.7646358058
0.7982697357
0.8187129504
0.8719841602
0.7931612570
0.8045930175
0.7944914236
0.7720689909
0.9488572554
0.7925466602
0.7974017955
0.7971282315
0.8505468396
0.8965020686
0.7728823507
0.8063531690
0.9125524182
0.7954726647
0.9291899340
0.8162390701
0.7814298350
0.7664716537
0.9041016935
0.8176647332
0.8495901629
0.8973007110
0.8339657033
0.9008143043
0.7811045009
0.8347695638
0.9549448264
0.8194290524
0.8621505814
0.8223597118
0.8666624941
0.8153877972
0.9092033567
0.7669464445
0.8953258291
0.8701796078
0.8171714488
0.8017208279
0.9050135104
0.8800906506
0.9367344392
0.8140953132
0.9061401634
0.7974037741
0.9201015039
0.8001955670
0.9388875592
0.8719892606
0.8363558248
0.9179632728
0.8083978953
0.8025271574
0.9430822682
0.9598087955
0.8821848878
0.9049011990
0.8302699761
0.9533619784
0.8985563245
0.8701814680
0.9040082842
0.8938052059
0.8199587675
0.8890093641
0.8540857478
0.9294428563
0.8201691288
0.8327717261
0.8110426642
0.7966362856
0.9673628797
0.8797869983
0.8589805228
0.8452015843
0.8173951278
0.8099997377
0.8213219058
0.8885054200
0.8194752601
0.9036308828
0.8896003101
0.9433025014
0.9226560774
0.9021716143
0.8606241064
0.8303398224
0.9044606042
0.8138020153
0.9022756020
0.9488059484
0.9304930712
0.8052762783
0.8257687312
0.8341101286
0.8073793835
0.9032179523
0.8755285504
0.9372729858
0.9133096921
0.8287533011
0.8315986936
0.8460775802
0.8876150768
0.8588394191
0.9019893877
0.8222972731
0.9016819088
0.8988706652
0.8436854439
0.8417780478
0.8736291519
0.8832051003
0.8288678352
0.8906650986
0.8944559809
0.9028919220
0.8367229724
0.8422347549
0.8409445173
0.8973278120
0.9024154283
0.9039771011
0.9045561737
0.9027983930
0.8346796622
0.8423511226
0.8164472232
0.8261289783
0.9029161068
0.8468710290
0.8480189346
0.9054706571
0.8327673619
0.8260413570
0.9050257502
0.8503195669
0.8905604945
0.8399929178
0.9096162894
0.9049000434
0.8512521671
0.9061510627
0.8467403449
0.8385210281
0.9151954681
0.8331448296
0.9137827396
0.9119495701
0.8297077770
0.8261978027
0.9280043158
0.9826204270
0.9820201683
0.9820936176
0.9826950717
0.9840198170
0.9774668131
0.9945534807
0.9940773740
0.9734542296
0.9760745840
0.9697737826
0.9735112335
0.9862211222
0.9948611112
0.9813099593
1.0029048114
0.9941154683
0.9840487081
0.9970709133
1.0020292088
0.9893847267
0.9709144467
0.9868149797
1.0042845780
0.9952519279
0.9763961900
0.9960827205
0.9954950253
0.9902298634
1.0052745413
0.9901596197
0.9919673153
0.9650794696
0.9848492094
0.9820175818
1.0029253550
1.0020457891
0.9971143445
0.9684661539
0.9797979642
0.9766376827
0.9734144920
0.9554609739
0.9140149729
0.9841463696
0.9904010079
0.9720528270
0.9051907379
0.9764068133
0.9952727402
0.9662021312
1.0010926972
0.9973023057
0.9650982577
0.9750098131
0.9013922245
0.9846122892
0.9455879422
0.9902091638
0.9594654884
0.9821125300
0.9783219573
0.8949985903
0.9068741594
0.9848761739
0.9504911601
0.9492698751
0.9671187137
0.9103225935
0.9602925678
0.9674060044
0.9288310734
0.9271232259
0.9667522497
0.9299962568
1.0009588442
0.9142602001
0.9124949293
0.9157774508
0.9733988232
0.9572855733
0.9013892639
0.8402517006
0.8478406296
0.9784090058
0.9456052102
0.9349986158
0.8950951397
0.9535665854
0.9422020418
0.9640136224
0.9072713995
0.9195000255
0.8501519490
0.8434416689
0.8967353336
0.9384856253
0.9421034516
0.9125121280
0.8917739303
0.8840983368
0.9568571994
0.8585649018
0.8749416368
0.9234048737
0.9485030639
0.8820476728
0.9257710569
0.9395766857
0.9300129401
0.8720017564
0.9157828251
0.9134016467
0.8864387836
0.8774090894
0.8606213775
0.8698126497
0.9273636194
0.9538413794
0.8751573504
0.9294518180
1.0009756699
0.8806805958
0.9350303525
0.9072763932
0.8737139227
0.8967925560
0.8415419960
0.8967811697
0.8311256437
0.8448830711
0.9438332814
0.8478215144
0.9280819146
0.8650425863
0.8353428719
0.8835873198
0.8402211502
0.8371830530
0.8726701318
0.8770663856
0.9540137470
0.8685352123
0.8605802419
0.8788638786
0.8862676735
0.8749206667
0.8818244241
0.9377895643
0.8917686046
0.9294568261
0.8984006786
0.9263867827
0.8756627318
0.8820429609
0.8720010127
0.9582112351
0.8681105200
0.8697736468
0.9259632853
0.8628247854
0.8840842089
0.8753284793
0.8683192615
0.8869337177
0.9397910122
0.8668040795
0.8415046831
0.8950526850
0.8870636991
0.8835901056
0.9110272615
0.8967712284
0.8673993872
0.8222626442
0.8653355750
0.8348343707
0.8771881478
0.8479517931
0.8281829026
0.9056536958
0.8979053011
0.8703349099
0.8563395682
0.8844293682
0.8311271538
0.8649625716
0.8187579902
0.8738580387
0.8502311936
0.8681225888
0.8686287771
0.8426756479
0.8685282414
0.8697558753
0.8613945956
0.8983952111
0.8665755180
0.8280498104
0.8862522295
0.8682603489
0.9379499483
0.8612887816
0.8819368632
0.8344277668
0.8488113613
0.8756554613
0.8653268230
0.8501714724
0.8600106388
0.8703274295
0.8535150061
0.8276657645
0.8596317851
0.9056591260
1.0076756321
0.8844215702
0.8348125575
0.8976444002
0.8836910208
0.8648933952
0.8481988495
0.8670569369
0.8468929813
0.8959376673
0.8222778677
1.0122395229
0.8254767311
0.9111903354
0.8612685084
0.8287475087
0.8243728367
1.0030153666
0.8506026763
0.8605480097
0.8577125285
0.8611729435
0.8445840596
0.8377433799
0.8562318575
0.8446759817
0.8619457549
0.8549468238
0.8882123537
0.8559448995
0.8492589303
0.8280726595
0.8572197498
0.8417123307
0.8533247947
0.8172751599
0.8599899001
1.0076708466
0.8595994507
0.8525414769
1.0128165531
0.8603271872
0.8527186716
1.0105951574
0.8211111293
0.8371725006
0.8145329277
1.0197212054
0.8536078686
1.0030239562
0.8561916692
0.8571372026
0.8474724473
0.9984987348
0.8882151017
0.8576947152
0.8439545054
1.0196878859
0.8243897472
0.8594937443
1.0260664643
0.8593782638
0.8605393721
0.8631047131
0.8549110978
0.8247184170
1.0184659210
0.8503573611
0.8072012579
0.8596467634
0.8532811020
0.8525153791
1.0047084838
0.8602485382
0.8520482517
0.8650075868
0.8487738868
0.8173567670
0.8599395626
1.0114633320
0.8633014620
0.8560035388
1.0106007853
0.9997924638
0.8581317531
0.8670441598
0.9985013681
1.0260646951
0.9836984148
1.0189231930
0.8535951751
0.8548315443
1.0184648935
1.0246347279
0.8512536552
0.8095998955
0.8145969995
1.0239012027
0.8615949974
0.9730069896
1.0179167462
0.8352049301
0.8605242862
1.0117044668
0.9913199967
0.8627853500
0.8557457706
1.0241358123
0.8538059939
0.8649851747
0.9969221057
0.8621211502
0.8572201886
0.8035305986
0.8519899863
0.8591785999
0.8595955590
0.8557527265
1.0081030639
1.0090309669
0.8653212191
1.0106059599
0.8073152297
1.0047199341
0.8596177869
0.8505139045
0.8632775671
0.8552548598
0.8642879288
0.8602190178
0.8579375427
1.0132434229
0.8527356286
1.0269696360
0.8085141476
1.0179147563
1.0246319038
0.8533417192
0.8558104802
0.8548229527
0.9678275916
0.8541153156
0.9872828727
1.0209362821
0.8512306861
1.0117093439
0.8097134012
1.0230798504
1.0226363955
0.8568050505
0.8627584772
0.9584424762
0.8649125391
0.9788719513
0.8548021821
1.0270538859
1.0307863082
0.8570738261
0.8572779955
1.0090540067
0.8022177193
0.8571903576
1.0168439241
1.0081067979
0.8037618166
1.0337815519
0.8591406563
0.8554041484
1.0148617235
0.8642622176
0.9323950471
0.8109219725
0.8547279282
0.9520584507
1.0270544782
0.8532942991
0.8506258587
1.0230822312
0.8547984464
0.8648896711
0.8527878167
1.0319074411
0.8557814400
0.8086177704
1.0278540405
0.8544694098
0.8622361552
1.0229183925
0.8537216946
0.9076232345
0.8502126161
1.0288342477
0.8076105804
0.8531308305
1.0322549310
1.0358087437
0.9411326903
0.8527022342
0.8022452131
1.0296486124
1.0367559869
1.0168445576
0.8799296957
0.8522888225
0.8545981960
1.0166845311
1.0319059776
1.0278523406
1.0331266301
0.8501912457
0.8527545392
1.0197106859
0.8494959499
0.9189536199
0.8622095749
0.8545617110
0.8110004043
1.0320787308
1.0342634841
0.8488676251
1.0150836676
0.8489241324
0.8930122078
0.8500812599
0.8531084223
1.0358886245
0.8522653651
0.8511216664
0.8506247627
0.8200162560
1.0358198744
0.8536464493
0.8193291668
1.0122980006
0.9708133655
1.0076923107
0.9900932303
0.8634094154
1.0342622247
0.8331743414
1.0283203428
0.9426927619
1.0034393186
1.0166864537
0.8748832957
1.0316822003
1.0293603631
0.8494463710
1.0127758912
1.0223979600
0.9810985254
0.9982065313
0.8470818067
0.9583636127
1.0053169801
0.9009898418
1.0320774062
1.0262705041
1.0197137814
0.8478314138
0.8191790732
0.8326332551
0.8511003874
0.8255246432
0.9236496934
0.8506030003
0.8015948259
0.7940911734
0.8437154658
0.8412277521
0.8464184848
0.7867924677
0.8059777206
0.8351066848
0.8487952359
0.8136295686
0.7870844824
0.8444822801
0.8439151289
0.8448149753
0.7918492527
0.8900114062
0.9575618310
0.9926879617
1.0253828045
0.9268852673
0.8590057088
1.0034290538
0.8332093869
1.0076853247
1.0212894304
0.8201152001
0.9779890931
1.0017354176
1.0283209272
0.9530676350
0.9952839957
0.9775669171
1.0171430563
0.9149036313
0.9685975917
0.9946923392
1.0293591520
0.9437473087
0.8841638270
1.0106789307
0.8621250747
0.8334119951
0.9873378269
1.0134599325
0.9667292519
0.9982063226
0.9872340188
1.0223992535
0.8215614599
0.9070341814
0.8095012051
0.7847457241
0.7740600381
0.7866497840
0.7914074475
0.8438462477
0.8466689695
0.8383915182
0.8057081827
0.8469956318
0.8404496462
0.8116013781
0.8319325602
0.9359465536
0.8478139922
0.8399813192
0.7999289201
0.8100495806
0.7973272824
0.7762537649
0.7779250460
0.7985669830
0.7956778568
0.8445168748
0.8463644915
0.8392074110
0.8192132314
0.8465744010
0.8386888704
0.8233464309
0.8368254339
0.8321283861
0.7934884729
0.9440489598
0.9811014777
1.0072061935
1.0212932641
0.9902601112
0.9655200860
0.8730454937
0.8115018570
0.9658268292
0.8201557288
0.9845740585
0.9120613218
0.8458026139
0.9380941190
0.9926820568
0.9559805287
0.9828298189
1.0134652641
1.0028650094
0.9755797373
0.8978610263
0.8232251470
0.9744140364
0.8460340186
0.9873284016
0.9294328571
0.8699646874
0.9533256234
1.0003398606
0.7805716172
0.7851481593
0.7665505676
0.8424533316
0.7952542488
0.8212098081
0.8073797279
0.8920809217
0.8297667558
0.8367649800
0.8328348256
0.8320129614
0.8027455395
0.9196146635
0.7748672965
0.7786489360
0.7980218838
0.8417498691
0.7706289522
0.7791368485
0.7682446230
0.8419744809
0.8095199032
0.8281814799
0.7951814713
0.8195918890
0.8367038033
0.8315759743
0.8328313071
0.7926066828
0.7853682225
0.7846247388
0.8107205634
0.8403889239
0.8100573619
0.7711485379
0.8068166575
0.7803753255
0.9527998787
0.9810949645
0.8117664230
0.8046729247
0.8988111316
0.7778320986
0.8376018637
0.9233846260
0.7784839179
0.7966831966
0.8119217226
0.9960827865
0.8581463545
0.8115195312
0.9537191192
0.9311912265
0.9727687971
0.7846484117
0.7940734431
0.7700103717
0.9781190404
0.7726510567
0.7910212749
0.9690407538
0.8087217734
0.7724672009
0.8176849694
0.7754079905
0.9636197153
0.9887017936
0.8125079877
0.8064181179
0.9163586160
0.7738385669
0.8586608373
0.9395261899
0.7834824452
0.7918996407
0.8113234010
1.0028740789
0.8820656935
0.8340310424
0.9623575073
0.9435513054
0.9744056106
0.7906300970
0.7886836406
0.7672172784
0.9911902381
0.7743234556
0.7981632684
0.9697708976
0.8776575984
0.8248228134
0.8005614339
0.7937026315
0.8324116013
0.8242145651
0.7683443047
0.8354178982
0.9342099781
0.9309819750
0.9123616797
0.8105065578
0.9093050615
0.8584567066
0.7791208705
0.8281540061
0.7885113997
0.8490373868
0.8181200519
0.8209806110
0.8368270060
0.8794505228
0.7872270330
0.9043541127
0.7707854573
0.7733722579
0.8824816463
0.7645235170
0.8868102074
0.8257734893
0.7911942794
0.7820769934
0.8223583831
0.8238007031
0.7762490190
0.8327979191
0.9390645279
0.9357612603
0.9140078396
0.8189399087
0.9063295329
0.8483640397
0.7697503325
0.8271360431
0.8027542941
0.8621461473
0.8064192626
0.8350933471
0.8361782372
0.7992907429
0.7777703255
0.7692209372
0.8749921088
0.7639565410
0.7801807078
0.7997868402
0.7864628372
0.8157035353
0.7924773375
0.7778356264
0.7835903713
0.7866322817
0.9402238299
0.8141347093
0.7915207324
0.8076001067
0.8141101924
0.8001678552
0.9100260398
0.7830748210
0.7684099064
0.7940735955
0.7680210948
0.8030590362
0.7885133591
0.9609154759
0.8010280824
0.8119537135
0.7689643689
0.7989677718
0.7830416170
0.7895430438
0.8230836207
0.9841881871
0.7879053878
0.7910433515
0.8475550884
0.7950539688
0.7980021278
0.8103775926
0.8064967662
0.7680215608
0.7831518838
0.8072647989
0.7784901126
0.8046920135
0.8071244215
0.9690386601
0.8068259710
0.7726514746
0.7699553040
0.8081231542
0.7764391227
0.8037522957
0.7973318465
0.7894785569
0.8207872856
0.7974423181
0.7846934086
0.7834745406
0.7884220610
0.9515497617
0.8118032563
0.7969957135
0.8104883573
0.7954848357
0.9264056940
0.7882054821
0.7645370109
0.8055655902
0.8055660186
0.7864817072
0.9623559313
0.8043875550
0.8095451862
0.7765544313
0.7940220454
0.7841848533
0.8232973419
0.9912017528
0.7765964384
0.7752768582
0.7842208909
0.8695705743
0.8030597761
0.8083756016
0.8041932069
0.7690081739
0.7796013377
0.8067312253
0.7743245347
0.7981897679
0.8097678866
0.9765892712
0.8261380114
0.7738407674
0.7739794570
0.9285640676
0.8303159290
0.8140893205
0.8153766943
0.8189420390
0.8905985850
0.9286613498
0.7829231472
0.9063376096
0.7931583826
0.7647628546
0.7675559530
0.8312325116
0.8194185102
0.9574464939
0.9309965574
0.9494940764
0.8282498005
0.8928564698
0.8983183129
0.8194675254
0.8066639024
0.9205071884
0.8008717939
0.8118759245
0.8776620011
0.9151600282
0.8343150113
0.8343166975
0.8603161159
0.7868423439
0.7664373277
0.8138649634
0.8723943130
0.8453907671
0.9715565562
0.9393425942
0.7925450845
0.7948533705
0.9259895876
0.9157231930
0.8215776153
0.9262192639
0.8004794506
0.9400557206
0.8297112228
0.8171647726
0.8125767361
0.8169138701
0.9279381408
0.7729755608
0.9140171275
0.7924048183
0.7752383826
0.8453934017
0.8173837116
0.9646245118
0.9357768538
0.9505429250
0.8242104451
0.8972934143
0.9144232175
0.8200513016
0.7947174362
0.9260009490
0.8055632588
0.8066815291
0.8851615283
0.9123705839
0.8483671754
0.8906855382
0.8799865271
0.8005701642
0.7646557877
0.8118997796
0.8824883998
0.9789495313
0.9390781901
0.9208389191
0.8053369669
0.7951756152
0.9339679586
0.9204964759
0.8403437570
0.7954587604
0.8359929395
0.9574509379
0.8983273287
0.8001690829
0.9715656908
0.7915256078
0.8007115178
0.8053420027
0.8702843559
0.7891965303
0.9024266927
0.9536522388
0.8894842958
0.8078210954
0.8807780759
0.7803199604
0.9235970201
0.8403531614
0.8612967526
0.7803224754
0.7672168708
0.7885142785
0.9019773900
0.8010027968
0.8125554761
0.8027293490
0.7906322975
0.8078423417
0.8844694590
0.9099034346
0.7997947976
0.7919397020
0.8125004257
0.9194529869
0.7801771111
0.9466226972
0.7866350723
0.7759285615
0.8079640028
0.8217083798
0.8019808022
0.8056291543
0.9103115925
0.8167611039
0.8078424998
0.7886836394
0.7888605974
0.8097558141
0.8305010975
0.9144008262
0.7888676187
0.7993736672
0.9285719315
0.8465864232
0.7809370525
0.9316961902
0.9494985984
0.7959409747
0.8492627033
0.9646303270
0.9144309330
0.8097827358
0.9789623335
0.7884258225
0.8079644357
0.7891669249
0.8215850386
0.8613697223
0.7867921175
0.8990949968
0.9601854041
0.8831978039
0.8961892416
0.9212684070
0.8603262172
0.8726360299
0.7817826074
0.7821992427
0.7930234977
0.9048899198
0.8083995517
0.8009254453
0.8072873111
0.8919233034
0.9217145429
0.7953767453
0.8241856095
0.9170854636
0.9471075903
0.7864834971
0.8097378249
0.8097812439
0.8129403956
0.8154803681
0.9096059605
0.8037639333
0.8094806799
0.8471359574
0.9137739387
0.7940929284
0.8071390999
0.9400631733
0.8366598355
0.7857357607
0.9399438024
0.9505487744
0.7973866385
0.8799964910