<VTKFile type="UnstructuredGrid" version="0.1">
	<UnstructuredGrid>
		<Piece NumberOfPoints="1862" NumberOfCells="3498">
			<CellData>
				<DataArray type="Int32" Name="type" NumberOfComponents="1" Format="ascii">
0
0
0
0
0
0
0
0
0
0
0
0
0
0
0
0
1
0
0
1
0
0
0
0
0
0
0
0
0
0
0
0
0
1
0
0
0
0
0
0
0
0
0
0
0
0
0
0
0
0
1
0
0
0
0
0
0
0
0
0
0
1
0
0
0
0
0
0
0
0
0
0
0
0
0
0
0
0
0
0
0
0
0
0
0
0
0
0
0
0
0
0
0
0
0
0
0
0
0
0
0
0
0
0
0
0
0
0
0
0
0
0
0
0
0
0
0
0
0
0
0
0
0
1
0
0
0
0
0
0
0
0
0
0
0
0
0
0
0
0
0
0
0
0
0
0
0
0
0
0
0
1
0
1
1
0
0
0
0
0
0
0
0
0
0
0
0
0
1
0
1
0
0
0
0
1
0
0
0
0
0
0
0
0
1
1
0
0
0
0
0
1
0
0
0
0
0
0
0
0
1
0
0
0
0
0
0
0
0
0
0
0
0
0
0
0
0
0
0
0
0
0
0
0
0
0
0
0
0
0
0
0
0
1
0
0
0
0
0
0
0
0
0
0
0
0
0
0
0
0
0
0
0
0
0
0
0
0
0
0
0
0
0
0
0
0
0
0
0
0
0
0
0
0
0
0
0
0
0
0
0
1
0
0
0
0
0
0
0
0
0
0
0
0
0
0
0
0
0
0
0
0
0
0
0
0
0
0
0
0
0
0
0
0
0
0
0
0
0
0
0
0
0
0
0
0
0
0
0
0
0
0
1
0
0
0
0
0
0
0
0
0
0
0
0
0
0
0
0
0
0
0
0
0
0
0
0
0
0
0
0
0
0
0
0
0
0
0
0
0
0
0
0
0
0
0
0
0
0
0
0
0
0
0
0
0
0
0
0
0
1
0
0
0
0
0
0
0
0
0
0
0
0
0
0
0
0
0
0
0
0
0
0
0
0
0
0
0
0
0
0
0
0
0
0
0
0
0
0
0
0
0
0
0
0
0
0
0
0
0
0
0
0
0
0
0
0
0
0
0
0
0
0
0
0
0
0
0
0
0
0
0
0
0
0
0
0
0
0
0
0
0
0
0
0
0
0
0
0
0
0
0
0
0
0
0
0
0
0
0
0
0
0
0
0
0
0
0
0
0
0
0
0
0
0
0
0
0
0
0
0
0
0
0
0
0
0
0
0
0
0
0
0
1
0
0
0
0
0
0
0
0
0
0
0
0
0
0
0
0
0
0
0
1
0
0
0
0
0
0
0
0
0
0
0
0
0
0
0
0
0
0
0
0
0
0
0
0
0
0
0
0
0
0
0
0
0
0
0
0
0
0
0
0
0
0
0
0
0
0
0
0
0
0
0
0
0
1
0
0
0
0
0
0
0
0
0
0
0
0
0
0
0
0
0
0
0
0
0
0
0
1
0
0
0
0
0
0
0
0
0
0
0
0
0
0
0
0
0
0
0
1
0
0
0
1
0
0
0
0
0
0
0
0
0
0
0
0
0
0
0
0
0
0
0
0
0
0
0
0
0
1
0
0
0
0
0
0
0
1
0
0
0
0
0
0
0
0
0
0
0
0
0
0
0
0
0
0
0
0
0
0
0
0
0
0
1
0
0
0
0
0
0
0
1
0
0
0
0
0
0
1
0
0
0
0
0
0
0
0
0
0
0
0
0
0
0
0
0
0
0
0
0
0
0
0
0
0
0
0
0
0
0
0
0
0
0
0
0
0
1
0
0
0
0
0
1
0
0
0
0
0
0
0
1
0
0
0
0
0
0
0
0
0
0
0
0
0
1
0
0
0
0
0
0
0
0
0
0
0
0
0
0
0
0
0
0
0
0
0
0
0
0
0
0
0
0
0
0
0
0
0
0
0
0
0
0
0
0
0
0
0
0
0
0
0
0
0
0
0
0
0
1
0
0
0
0
0
0
0
0
0
0
0
0
0
0
0
0
0
0
0
1
0
0
0
0
0
0
0
0
0
1
0
0
0
0
0
0
0
0
0
0
0
0
0
0
0
0
0
0
0
0
0
0
0
0
0
0
0
0
0
1
0
1
0
0
0
0
0
0
0
0
0
0
0
0
0
0
0
0
0
0
0
0
0
0
0
0
0
0
0
1
0
0
0
1
0
0
0
0
0
0
0
0
0
0
0
0
0
0
0
0
0
0
0
0
0
0
0
0
0
0
0
0
1
0
0
0
0
0
0
0
0
0
0
0
0
0
0
0
0
0
0
0
0
0
0
0
0
0
1
0
0
0
0
0
0
0
0
0
0
0
0
0
0
0
0
0
0
0
0
0
0
0
1
0
0
0
0
0
0
1
0
0
0
0
0
0
0
0
0
0
0
1
0
0
0
0
0
0
0
0
0
0
0
0
0
0
0
0
0
0
0
0
1
0
0
0
0
0
0
0
0
0
0
0
1
0
0
0
0
0
0
0
0
0
0
0
0
0
0
0
0
0
0
0
0
0
1
0
0
0
0
0
0
0
0
0
1
1
0
1
0
1
0
0
0
0
0
0
0
0
0
0
0
1
0
0
0
0
0
1
1
0
0
0
0
0
0
1
0
0
0
0
0
1
1
1
0
0
0
0
0
0
0
0
0
0
0
0
1
1
0
0
1
0
0
0
0
0
1
0
0
0
1
0
1
0
0
0
0
0
0
0
1
0
0
0
0
0
0
0
1
0
0
1
0
0
0
0
0
0
0
0
0
0
0
0
0
0
0
1
0
0
0
0
0
0
0
0
0
0
0
0
0
0
0
0
0
0
0
0
0
0
0
0
0
0
0
0
0
0
0
0
0
0
0
0
1
0
0
0
0
0
0
1
0
0
0
1
0
0
0
0
0
0
0
0
0
0
0
1
0
0
0
0
0
0
0
0
0
0
0
0
0
0
0
0
0
0
0
0
0
0
0
0
0
0
0
0
0
0
0
0
0
0
0
0
0
0
0
0
1
1
0
0
0
0
0
0
0
0
0
0
0
0
0
1
0
0
0
0
0
0
0
0
0
0
0
0
0
0
0
0
0
0
0
0
0
0
0
0
0
0
0
0
0
0
0
0
0
0
0
0
0
0
0
0
0
0
0
0
0
0
0
0
0
0
0
0
0
0
0
0
0
0
0
0
0
0
0
0
0
0
0
0
0
0
0
0
1
1
0
0
0
0
0
0
0
0
1
0
0
0
0
0
0
0
0
0
0
0
0
0
0
0
0
0
0
0
0
0
0
0
1
0
0
0
0
0
0
0
0
0
0
0
0
0
0
0
0
1
0
0
0
0
0
0
0
0
0
0
0
0
0
0
0
0
0
0
0
0
0
0
0
0
0
0
0
0
0
0
0
0
0
0
0
0
0
0
0
0
0
0
0
0
0
0
0
0
0
0
0
0
0
0
0
0
0
0
0
0
0
0
0
0
0
0
0
0
0
0
0
0
0
0
0
0
0
0
0
0
0
0
0
0
0
0
0
0
0
0
1
1
0
0
0
0
0
1
0
0
0
0
0
0
0
0
0
0
0
0
1
0
0
0
0
0
0
0
0
0
0
0
0
0
0
0
0
0
0
0
0
0
0
0
0
0
0
0
0
0
0
0
0
0
0
0
0
0
0
0
0
0
0
0
0
0
0
0
0
0
0
0
0
0
1
0
1
0
0
0
0
0
0
0
0
0
0
0
0
0
0
0
0
0
0
1
0
0
0
0
0
0
0
0
0
0
0
0
0
0
0
0
0
0
0
0
0
0
0
0
0
0
0
0
0
0
0
0
0
0
0
0
0
0
0
0
0
0
0
0
0
0
0
0
0
0
0
0
0
0
0
0
0
0
0
0
0
0
0
0
0
0
0
0
0
0
1
0
0
0
0
0
0
0
0
0
0
1
0
0
0
0
0
0
0
0
0
0
0
0
0
0
0
0
0
0
0
0
0
0
0
0
0
0
0
0
0
0
0
0
0
0
0
0
0
1
0
0
0
0
0
0
0
0
0
0
0
0
0
0
0
0
0
0
0
0
0
0
0
0
0
0
0
0
0
0
0
0
0
0
0
0
0
0
0
0
0
0
0
0
0
0
0
0
0
0
0
0
0
0
0
0
0
0
0
0
0
0
0
0
0
0
0
0
0
0
0
0
0
0
0
0
0
0
0
0
0
1
0
0
0
0
0
0
0
0
0
0
0
0
0
0
0
0
0
0
0
0
0
0
0
0
0
0
0
0
0
0
0
0
0
0
0
0
0
0
0
0
0
0
0
0
0
0
0
0
0
0
0
0
0
0
0
0
0
0
0
0
0
0
0
0
0
0
0
0
0
0
0
0
0
0
0
0
0
0
0
0
0
0
0
0
0
0
0
0
0
0
0
0
0
0
0
0
0
0
0
0
0
0
0
0
0
0
0
0
0
0
0
0
0
0
0
0
0
0
0
0
0
0
0
1
0
0
0
0
0
0
0
0
0
0
0
0
0
0
0
0
0
0
0
0
0
0
0
0
0
0
0
0
0
0
0
0
0
0
0
0
0
0
0
0
0
0
0
0
0
0
0
0
0
0
0
0
0
0
0
0
0
0
0
0
0
0
0
0
0
0
0
0
0
0
0
0
0
0
0
0
0
0
0
0
0
1
0
0
0
0
0
0
0
1
0
0
0
0
0
0
0
0
0
0
0
0
0
0
0
0
0
0
0
0
0
0
0
0
0
0
0
0
0
0
0
0
0
0
0
0
0
1
0
0
0
0
0
0
0
0
0
0
0
0
0
0
0
0
0
0
0
0
0
1
0
0
0
0
0
0
0
0
0
0
0
0
1
1
0
0
0
0
0
0
0
0
0
0
0
0
0
0
0
1
1
0
1
0
0
0
0
0
0
0
0
0
1
0
0
0
0
0
0
1
0
0
0
0
0
0
0
0
0
0
1
0
0
0
0
1
0
1
0
0
0
0
0
0
0
1
0
0
0
1
0
0
0
1
0
1
1
0
0
1
1
0
0
0
1
0
0
0
1
0
0
0
0
0
0
0
0
0
1
0
0
0
0
0
0
1
0
0
0
0
0
0
0
0
0
0
0
0
0
0
0
0
0
0
0
0
0
0
0
0
0
0
0
1
0
0
1
0
0
0
0
0
0
0
0
0
0
0
0
0
0
0
0
0
0
1
0
0
1
0
0
0
0
0
0
0
0
0
0
0
1
0
0
1
0
0
0
0
0
0
0
0
0
0
0
1
1
0
0
0
0
0
0
0
0
0
0
0
0
1
0
0
0
0
0
0
0
0
0
0
0
0
0
0
0
0
0
1
0
0
0
0
0
0
0
0
0
0
0
0
0
0
0
0
0
1
0
0
0
0
0
0
0
0
0
0
0
0
0
0
0
0
0
0
0
0
0
0
0
0
0
0
0
0
0
0
0
0
0
0
0
0
0
0
0
0
1
0
0
0
0
0
0
0
0
0
0
0
0
0
0
0
0
0
0
0
0
0
0
0
0
0
0
0
0
0
0
0
0
0
0
0
0
0
0
0
0
0
0
0
0
0
1
0
0
0
0
0
0
0
0
0
0
0
0
0
0
0
0
0
0
0
0
0
0
0
0
0
0
0
0
0
0
0
0
0
0
0
0
0
0
0
0
0
0
0
0
0
0
0
1
0
0
0
0
0
0
0
0
0
0
1
0
0
0
0
0
0
0
0
0
0
0
0
0
0
0
1
0
0
1
0
0
0
0
0
0
0
0
0
0
0
0
0
0
0
0
0
0
0
0
0
0
0
1
0
0
0
0
0
0
0
0
0
0
0
0
0
0
0
0
0
0
0
0
0
0
0
0
0
0
0
0
0
0
0
0
0
0
0
1
0
0
0
0
0
0
0
0
0
0
0
0
0
0
0
0
0
0
0
0
0
0
0
0
0
0
0
0
0
0
0
0
0
0
0
0
0
0
0
0
0
0
0
0
0
0
0
0
0
0
0
0
0
0
0
0
0
0
0
0
0
0
0
0
0
0
0
0
0
0
0
0
0
0
0
0
1
0
0
0
0
0
0
0
0
0
0
0
0
0
0
0
0
0
0
0
0
0
0
0
0
0
0
0
0
0
0
0
0
0
0
0
0
0
0
0
1
0
0
0
0
0
0
0
0
0
0
0
0
1
1
0
0
0
0
0
0
0
0
0
0
0
0
0
0
0
0
0
0
0
0
0
0
0
0
0
0
0
0
0
0
0
0
0
0
0
0
0
0
0
0
0
0
0
0
0
0
0
0
0
0
0
0
0
0
0
0
0
0
0
0
0
0
0
0
0
0
0
0
0
0
0
0
0
0
0
0
0
0
0
0
0
0
0
0
0
0
0
0
0
0
0
0
0
0
0
0
0
0
0
0
0
1
0
1
0
0
0
0
0
0
0
1
1
1
1
0
0
0
0
0
0
0
0
0
0
0
0
0
0
0
0
0
0
0
0
0
0
0
0
0
0
0
0
1
1
0
0
0
0
0
0
0
0
0
0
0
0
0
0
0
0
0
0
1
0
0
0
0
0
0
0
1
1
0
1
1
0
0
1
0
0
0
0
0
0
0
1
0
1
0
0
0
0
0
0
0
0
0
0
0
0
0
0
0
0
0
0
0
0
0
0
0
0
0
0
0
1
1
0
0
0
1
1
0
0
0
0
1
0
0
1
0
1
0
0
0
0
0
1
0
0
0
1
0
0
0
0
0
0
0
0
0
0
0
0
0
0
0
0
0
0
0
0
0
0
0
0
0
0
0
1
0
0
0
0
0
0
1
0
0
0
0
0
0
0
0
0
0
0
0
0
0
0
0
0
0
0
0
0
0
0
0
0
0
0
0
0
1
0
1
0
0
0
0
0
0
0
1
0
0
0
0
0
0
0
0
0
0
0
1
0
0
0
0
0
0
0
0
0
1
0
0
0
0
0
0
0
1
0
0
0
0
0
0
0
1
0
0
0
0
0
0
0
0
0
0
0
0
0
0
0
0
0
0
0
1
0
1
0
0
0
0
0
1
0
0
0
0
0
0
0
0
0
0
0
0
0
0
0
0
0
0
0
0
0
0
0
0
0
1
0
1
0
0
0
0
0
0
0
0
0
1
0
0
0
0
0
1
0
0
0
0
0
0
0
0
0
0
0
0
0
0
0
1
0
0
0
0
0
0
0
0
1
0
0
0
0
0
0
0
0
0
0
0
0
0
0
0
0
0
0
0
0
0
0
0
0
0
0
0
0
0
0
1
0
0
0
0
0
0
0
0
0
0
0
0
0
0
0
0
1
0
0
0
0
0
0
0
0
1
0
0
0
0
0
0
0
0
0
1
0
0
0
0
0
1
0
0
0
0
0
0
0
0
0
0
0
0
0
0
0
0
0
0
0
1
0
0
0
0
0
0
1
0
0
0
0
0
0
0
0
1
0
0
0
0
0
0
0
0
0
0
0
0
0
0
1
0
0
1
0
0
0
1
0
0
0
0
0
0
0
0
0
0
0
0
0
0
0
0
1
0
0
0
0
0
0
0
0
0
0
1
0
1
0
0
0
0
0
0
1
0
0
0
0
0
0
0
0
0
0
0
0
0
0
0
0
0
0
0
0
0
0
0
0
0
0
0
1
1
0
0
0
0
0
0
1
0
0
0
0
0
0
0
0
0
0
0
0
0
1
0
0
0
0
0
0
0
1
0
0
0
0
0
0
0
0
0
0
0
0
0
0
0
0
0
0
0
0
0
0
0
0
0
0
0
1
0
0
0
0
0
0
0
0
0
0
1
0
0
1
0
0
0
0
0
0
0
0
0
0
0
0
0
0
0
0
0
0
0
0
0
0
0
0
0
0
0
0
0
1
0
0
0
0
0
0
0
1
0
0
0
0
0
0
0
1
0
0
0
0
1
0
0
0
0
0
0
0
0
0
0
0
1
0
1
0
0
0
1
0
				</DataArray>
				<DataArray type="Float64" Name="h" NumberOfComponents="1" Format="ascii">
0.6400117815
0.6399950387
0.5672976357
0.5815228632
0.6055593828
0.5914543485
0.6018149829
0.6311780125
0.6194445850
0.6327292186
0.5994255183
0.5634637791
0.6415958099
0.5970570237
0.6365751574
0.6381777595
0.5521189676
0.6362734292
0.6440120356
0.5697265985
0.5329809915
0.6443370783
0.6507694119
0.5861689457
0.5652914067
0.6341949807
0.6497488731
0.6703903230
0.6475686490
0.6115874915
0.5816118359
0.6481721862
0.6431522646
0.5351296464
0.5231835273
0.6328024396
0.5215568359
0.6552685553
0.6724132250
0.5566265101
0.6396894605
0.6577788039
0.6508740636
0.6579338520
0.6017413318
0.6646204920
0.6554797398
0.5217199278
0.5124174267
0.5553332996
0.5223764569
0.6536371968
0.6553929822
0.6402780750
0.6341201846
0.6521302470
0.6613554607
0.5084848711
0.5258586863
0.5862179932
0.5014816012
0.5010819900
0.5114101001
0.6434589582
0.6636226770
0.6743495934
0.6429139851
0.5510431349
0.5033327606
0.5021400305
0.5141137475
0.5911759595
0.6573785793
0.6077344911
0.5554498051
0.6803529895
0.5156767943
0.5066000420
0.5103438456
0.6761383043
0.5005246414
0.6731211385
0.5003378615
0.6340667920
0.6727903885
0.6822053372
0.5003996330
0.6763051874
0.5163676037
0.5023408227
0.5016198994
0.6809598042
0.5028288772
0.5139599313
0.6815104388
0.6812847581
0.6868010278
0.6745689469
0.6756060224
0.5008395395
0.5008968135
0.5002584163
0.6756356821
0.5056399477
0.6311442324
0.6782820624
0.6884443651
0.5052911174
0.5142335658
0.6784248320
0.5305793675
0.5057956889
0.5036288937
0.5042250078
0.6565883375
0.5000557444
0.6664275402
0.6283674624
0.5006805184
0.5800367062
0.6290948264
0.6823845648
0.6879711500
0.6012421408
0.5097508693
0.5020786056
0.6187969913
0.6148973799
0.5000371518
0.5001041029
0.5002574949
0.6868757053
0.5432261116
0.5000055124
0.6163706665
0.5006513493
0.6299728399
0.5000086516
0.5000754923
0.6366867331
0.6237044494
0.6019775321
0.5000945262
0.6422645301
0.6875412287
0.5002950657
0.6326840093
0.5000043810
0.6178284978
0.5000004774
0.6283059542
0.5000020617
0.5000030878
0.5000000467
0.5001154163
0.5000147099
0.5000002861
0.6279252912
0.5000003442
0.6161342621
0.6365968899
0.5000027711
0.6288629884
0.6237601922
0.6261958617
0.5000375089
0.6495922965
0.6317421934
0.6030564850
0.5000059919
0.5000004320
0.6002279641
0.5000000948
0.6284424590
0.6519653770
0.5000000015
0.6433480417
0.5000051175
0.5000000101
0.6254058575
0.5000367500
0.6616392408
0.6204348376
0.6942464371
0.6023017309
0.5932843326
0.6579982503
0.5000000356
0.6031213219
0.5826056450
0.6728120726
0.5000000129
0.6115105869
0.6669615227
0.5000000033
0.5000150220
0.6274557912
0.6830584476
0.6762301078
0.5000000586
0.5801181812
0.6950133431
0.5901224735
0.5000000472
0.6928245988
0.6285665620
0.6285046774
0.6256596703
0.6856555149
0.6394736287
0.6694500314
0.6029831668
0.6265786664
0.6291615647
0.6264247915
0.6807857116
0.6328720465
0.6271568718
0.6582363182
0.6240536277
0.6944104719
0.5154578581
0.6481114786
0.6579198051
0.7008966493
0.5000006004
0.5003683538
0.6962652782
0.7014021208
0.5025743831
0.5000001786
0.5682011088
0.6992876866
0.5000000743
0.5000055569
0.6871225706
0.6767897710
0.6216882411
0.6220956453
0.6348590642
0.6723650380
0.6192550097
0.6275741156
0.6404920086
0.6234303903
0.6265593384
0.6271914113
0.6631206672
0.6195302641
0.6240268616
0.6267949288
0.6582718906
0.6252838036
0.6889153932
0.6860390641
0.6293669880
0.6322066259
0.6236828635
0.6291558032
0.6165485975
0.6454611373
0.7082022891
0.7031041437
0.6823007904
0.7008556481
0.5000165257
0.5000019017
0.7015337270
0.5000002000
0.5378021479
0.5010650306
0.6509560129
0.5065177158
0.6935209400
0.6768412849
0.7090739218
0.7059836848
0.6979536223
0.6276189165
0.7019697401
0.5009989804
0.5000002421
0.5000018423
0.5000171658
0.5070712775
0.5345270100
0.6986834635
0.6117074643
0.6241989709
0.6219398512
0.6187027857
0.6814640856
0.6086691039
0.6150543659
0.6280819391
0.6759750292
0.6362277290
0.6091589322
0.6164263350
0.6293650682
0.6243687547
0.6152944593
0.6661464987
0.6923839829
0.6957231410
0.6178554227
0.6585693067
0.6257269137
0.6198835188
0.7158895174
0.7017830552
0.7095420839
0.5000006417
0.7094738770
0.5029176496
0.6678009948
0.6418003495
0.5170366210
0.5000057020
0.6494576118
0.6973768281
0.7078842545
0.5797701348
0.5000501553
0.7131149282
0.7052204899
0.7056008066
0.5000057575
0.6931868195
0.5748466131
0.5028056861
0.5000501736
0.5000007471
0.7171843806
0.6690192464
0.7095422116
0.5180745042
0.6076092104
0.5001082992
0.6191563090
0.6812053908
0.6305666908
0.6168210790
0.6872471063
0.5943297649
0.5972923684
0.6028418968
0.6120874176
0.5160709279
0.7386173028
0.7001844314
0.7161887396
0.6037224194
0.6105098517
0.5020362573
0.6053787547
0.7401417160
0.6595366766
0.6167327689
0.7080718323
0.6746095690
0.5000885242
0.6243711330
0.6688221024
0.7033895248
0.5932929875
0.7437768343
0.7449384159
0.7277582738
0.6149338284
0.7272195666
0.6275564783
0.6050196221
0.5000161440
0.6875109553
0.7064958787
0.5001438311
0.5282972617
0.5075086892
0.7237457576
0.7180392935
0.5403284962
0.5000019478
0.6379820109
0.6378939731
0.6481490093
0.7154582691
0.7083592033
0.7162564354
0.5886832705
0.5000021755
0.7254031882
0.7034239200
0.7412070711
0.5001386388
0.6911734934
0.4999618789
0.4786112247
0.5021091462
0.7038638257
0.7204819823
0.5074331237
0.6730008102
0.6309396078
0.7265886883
0.5000169989
0.5415787974
0.7176679539
0.7121085287
0.6338353166
0.7118115061
0.7421636230
0.6944362839
0.7452855006
0.5926228873
0.5023890257
0.5404731571
0.6244470863
0.7070867281
0.7311650456
0.7526268711
0.7428015000
0.5863583840
0.5773184225
0.5007045833
0.7160797632
0.5001237052
0.6053961892
0.6952293346
0.6942255260
0.7336232683
0.5005588366
0.7210832705
0.5328272603
0.7338432149
0.7217296263
0.6872403280
0.6383282651
0.5009942225
0.7580551138
0.7518730714
0.7369349139
0.5868219774
0.7202219692
0.7539033950
0.6052911750
0.7265816180
0.7512565585
0.7103738146
0.7082124577
0.7256617716
0.5000149216
0.6149386386
0.7343823194
0.6728767264
0.7427992340
0.5003959176
0.5593735298
0.7393503494
0.5084404799
0.5972161339
0.7118772989
0.5739798365
0.5000055661
0.6491414137
0.7018748367
0.7213224073
0.7233160683
0.7325428845
0.5640864273
0.5003895659
0.6215345413
0.5819236656
0.6791850804
0.7270395492
0.7147910128
0.5054330180
0.6298909888
0.5897472464
0.5125328483
0.4933731886
0.7196220945
0.5650256684
0.5000473031
0.7109095619
0.6316528252
0.5182691002
0.4789294769
0.7101940171
0.4704699899
0.7590452499
0.7260533911
0.5012984119
0.5791799844
0.4999630053
0.5418889607
0.5929995547
0.5519480725
0.6732748134
0.4621326310
0.7362109995
0.7205966354
0.5791956133
0.5021105373
0.7038624084
0.6510982868
0.7193155870
0.6013490630
0.7322167237
0.7560209063
0.4789284850
0.7024317509
0.7408663056
0.6215288053
0.7619398373
0.5897509919
0.7297672050
0.7559510643
0.5798899381
0.6031044076
0.7024366134
0.7459227931
0.7561428331
0.5000367660
0.5543926719
0.7159583324
0.4367697968
0.7445125542
0.7574832613
0.6983641551
0.7197562863
0.5739752531
0.7323657004
0.5485997547
0.5640858130
0.7171873587
0.5791831420
0.5929942996
0.6013540760
0.7574818269
0.7196240269
0.6883846905
0.4987929559
0.5918242581
0.5964394755
0.5733280416
0.4653061438
0.6791938116
0.6472771916
0.4719999374
0.5011362632
0.5422611613
0.5462839446
0.7498328896
0.5684840306
0.7564562045
0.7192474207
0.4564107189
0.6654141366
0.5108778964
0.6714677367
0.4431664068
0.5593457091
0.5650225428
0.7370618744
0.6380499716
0.6511001464
0.7213311041
0.7502552558
0.5000149378
0.6383409210
0.7540450609
0.7269038862
0.7479661154
0.7311754457
0.5565621698
0.7355252952
0.7625394075
0.7408619262
0.6826563144
0.5637128085
0.7103606826
0.7362066331
0.4051498803
0.7605501458
0.5171839664
0.5009954075
0.6943053277
0.7265937720
0.4962101294
0.5001239951
0.7239354900
0.5264858316
0.7396297460
0.5022782344
0.7343883241
0.7099209096
0.5711662199
0.5036970752
0.6737955502
0.7477313941
0.6473838736
0.5341064789
0.5318911025
0.7160841180
0.4852094632
0.6392627789
0.6949628139
0.5403761351
0.4218742983
0.5687122871
0.5276320722
0.7197113437
0.4702261442
0.7625385801
0.5165816745
0.7517574751
0.5486010454
0.6383404736
0.6983669332
0.5543903844
0.5001722072
0.7587235927
0.5421138703
0.5798925556
0.6062583621
0.6241882170
0.7114268561
0.5684867175
0.5435315835
0.6392627914
0.6040891968
0.5125113921
0.7192455924
0.6031014015
0.6714731895
0.5462833169
0.7294491643
0.6567851834
0.7380018735
0.7566752982
0.5918279573
0.5576216607
0.6902040741
0.6947697439
0.5005973758
0.7261474628
0.7498322893
0.5112439858
0.6083364205
0.7818329725
0.5836244088
0.5432471863
0.5051611495
0.8716684741
0.6635796361
0.7183575407
0.5733252947
0.7351561616
0.5436209388
0.5603149869
0.5118337100
0.7450108138
0.7245233060
0.5493466258
0.7416474587
0.6457119974
0.6255343201
0.5265078658
0.5140128418
0.5138439485
0.5015051692
0.7171866997
0.5057242930
0.6901571876
0.5765878217
0.7301957366
0.6362098291
0.5901389676
0.5027206509
0.6029884657
0.6418773791
0.5794762688
0.7282387434
0.5102776517
0.4964991208
0.7202204331
0.7165352740
0.5247206660
0.6734429650
0.4837674731
0.4651144974
0.7246250859
0.5923782416
0.5785184867
0.7208869398
0.6991121545
0.7315668106
0.7275594113
0.8430936806
0.6187096520
0.5167405079
0.5964488127
0.6567855760
0.7166346520
0.4218750799
0.5035081253
0.5422622070
0.5612496142
0.4410236619
0.4579206624
0.5058278904
0.4702269144
0.5290809542
0.5021104434
0.4431669300
0.5085960763
0.4283535631
0.3831868207
0.5714161507
0.5020794265
0.4827929562
0.6402860234
0.6339076605
0.6339276773
0.6402955085
0.5815481848
0.5634426943
0.5994233740
0.6198535677
0.6290873760
0.5913966025
0.6056216930
0.6291649468
0.6194655999
0.6365984714
0.6017937518
0.6268404944
0.6198378318
0.5815691342
0.6383551176
0.6363024342
0.5815232565
0.5673352828
0.6440025180
0.6116087155
0.6393719680
0.5479040823
0.6311439170
0.6341969851
0.5652860312
0.6326887381
0.6418556120
0.6416183492
0.5489444688
0.6390677010
0.6479515528
0.6268093960
0.5816103232
0.6383525099
0.5351203109
0.6431961923
0.6481656428
0.6447971675
0.5565780764
0.6701386904
0.5521193872
0.6381658983
0.6509402269
0.6724485596
0.5479205819
0.6393836168
0.6396027090
0.5970510897
0.5697186111
0.5489770822
0.6507549763
0.5396201452
0.6442964042
0.5363041335
0.6418666397
0.5329980384
0.6479220449
0.6480693684
0.6696400525
0.5216989922
0.6390484728
0.6016362429
0.5223684694
0.6555247872
0.6703829610
0.5862472731
0.6476296909
0.6612923656
0.6672207152
0.6496800034
0.5428401585
0.6367836541
0.6700910134
0.6453047635
0.5123509551
0.6447466840
0.6553592606
0.5396747155
0.5279381791
0.5249530959
0.6480096453
0.5363347505
0.5740794170
0.6696718503
0.6329324190
0.6636555878
0.6552078807
0.5698908036
0.5232043021
0.5114075872
0.5510255855
0.6649572610
0.5215675466
0.6433220081
0.6454662828
0.5295402213
0.5433137782
0.6579267434
0.6075842952
0.6260978237
0.5910435934
0.6574525702
0.5039349134
0.6654930760
0.6637047661
0.5428869809
0.5007677035
0.5123549632
0.6578856558
0.5156612726
0.5141006401
0.5651834659
0.5553564061
0.6671640219
0.6585864576
0.5033323984
0.5133618242
0.6367700927
0.5021408621
0.5741754252
0.5699988370
0.6765371438
0.6650424396
0.5884260870
0.5949450332
0.5977742621
0.5124178876
0.6537275600
0.5249517535
0.6646268035
0.6730715605
0.6340031966
0.6601267918
0.5279217486
0.5552998836
0.5014815002
0.5010813859
0.6585171632
0.5012742056
0.5652800112
0.5258957481
0.5692568255
0.6262954360
0.6781395945
0.6605596706
0.5295799403
0.5133653799
0.6329066786
0.6342911427
0.5068501955
0.5039356975
0.5007672123
0.6520591850
0.6668898667
0.5299152618
0.6654302373
0.6404870156
0.5433838685
0.5863741428
0.6809986448
0.5084886156
0.6636530621
0.5028274262
0.5885314703
0.5056400139
0.6756363977
0.6602422462
0.6692349505
0.5951057733
0.5002586157
0.6658769097
0.5020275107
0.6614892310
0.6743688109
0.5008936903
0.6429323651
0.5070524568
0.6746212107
0.5003671367
0.6812993825
0.6460592508
0.5976586395
0.5008393667
0.6783001846
0.6765243675
0.5001213375
0.6669961767
0.5142162808
0.5057899942
0.5012740363
0.5299566937
0.5036267450
0.6330889822
0.6803061203
0.5621232131
0.5693813689
0.5066040939
0.6604911846
0.5007286428
0.6780909956
0.5306393372
0.6783886086
0.5068551484
0.5020278582
0.5001220160
0.6596823128
0.5003668542
0.6821745399
0.6823654894
0.5369378921
0.5070530709
0.6335098533
0.6462303168
0.6616146841
0.6727342210
0.6760956948
0.5003995088
0.5003398969
0.5005245073
0.6662747928
0.5103500631
0.6658544950
0.6291160373
0.6763160910
0.6691768404
0.5007289897
0.6868956926
0.6049154990
0.6332688227
0.5020748479
0.5077780699
0.5017760819
0.5163850908
0.6815057566
0.5139485546
0.5002599099
0.5023489485
0.5016213825
0.5019146609
0.5029846964
0.5097493222
0.6186276889
0.5618761781
0.5001038209
0.6756967182
0.5003001960
0.6533816761
0.6598554387
0.6335002296
0.5369867845
0.5047393501
0.6163940766
0.5006503801
0.5431812244
0.6311311979
0.6867769304
0.6875799645
0.6689275470
0.6019797553
0.5218769085
0.6332697841
0.5002606659
0.5042280944
0.5052996073
0.6335516132
0.5029839988
0.5017774125
0.6567813433
0.6178433137
0.6046273297
0.5000943931
0.6048602169
0.5000558556
0.5077844953
0.5002948395
0.5019178949
0.6884080577
0.6127591779
0.6864989720
0.6813716872
0.5000012467
0.5003012030
0.5047411099
0.6288683437
0.5000130907
0.5008134195
0.5001568919
0.5801474579
0.6530582859
0.5000020624
0.6283410274
0.5001247247
0.5006816059
0.6074813111
0.6282878434
0.5000030840
0.5001155158
0.6335554601
0.6048597760
0.6317452481
0.6262052036
0.5218836896
0.5000009269
0.6127447588
0.6167494525
0.5000014939
0.6869260874
0.6688453083
0.6012434714
0.5000371759
0.6366240783
0.6261706690
0.6879248286
0.5002577644
0.5941814281
0.6288530924
0.5000470920
0.5000027611
0.6148890238
0.5000003432
0.5001568516
0.6299855936
0.5000055118
0.5000023255
0.6908349193
0.5008163462
0.5000202543
0.5000086628
0.5000000947
0.5846071213
0.6297332533
0.5000754360
0.6074656311
0.6811485762
0.6288835087
0.5000012472
0.6864588092
0.5001247434
0.5000059742
0.5000210596
0.5000130986
0.5000004320
0.6284414441
0.5000004790
0.6204385317
0.6918399360
0.6261543380
0.6167423854
0.5001109342
0.5000008620
0.5000001093
0.6422139126
0.5000043994
0.6326802139
0.6254100727
0.5000015002
0.5941798799
0.6868454087
0.6241832393
0.6236952692
0.5000366108
0.5000471017
0.6433985680
0.5000319888
0.6366650356
0.5000009296
0.6175085582
0.6031195655
0.5000147559
0.5000002864
0.6297424036
0.6943716324
0.5000023301
0.5954440647
0.5846037088
0.6907859877
0.6022987274
0.5000202970
0.5000000467
0.6279211822
0.5000210509
0.6580594796
0.6939424421
0.5000000033
0.6495259388
0.6175046209
0.5001114851
0.5000149341
0.6241793657
0.5000001095
0.5000319628
0.5000131915
0.6077622280
0.5000008637
0.6917966995
0.6161921688
0.5000000128
0.5000084483
0.6237555429
0.5000376757
0.6670150898
0.5000017056
0.6161321122
0.6950709356
0.5000000056
0.6002301706
0.5901194045
0.6519075047
0.5000000472
0.6943255888
0.6030597618
0.5801155967
0.5954442481
0.6762751941
0.5000000153
0.5000000101
0.6270579421
0.6077621920
0.6161877063
0.6029821740
0.5000017137
0.5000132593
0.6262836732
0.5000435270
0.6615859933
0.5000084435
0.5000000015
0.6938935199
0.6058757022
0.5988395624
0.5000051487
0.6265814812
0.6856893181
0.6727659852
0.5000001781
0.5000000056
0.5826071048
0.5000000154
0.5000001559
0.5000000214
0.6941991778
0.5932901981
0.5000000356
0.6944425606
0.6271955687
0.6265693913
0.6271759029
0.6234165468
0.6830229957
0.5988386680
0.6917459473
0.6183403710
0.6405289061
0.6260596964
0.6270570582
0.6768234733
0.6115086592
0.6172616207
0.5000438416
0.6274571486
0.6276263637
0.6236784526
0.6238600919
0.6889380529
0.6322323984
0.6252836213
0.6631584360
0.6058725517
0.6221021319
0.6262793746
0.5000005583
0.6999901508
0.6927997617
0.5000001563
0.5347126310
0.6509951559
0.5000000214
0.6768127962
0.7020056598
0.5000018330
0.5009932269
0.5000473551
0.6987328472
0.7015489981
0.5065144902
0.5000000587
0.6173405978
0.7009066321
0.5000001999
0.5001341084
0.5000163925
0.6935815526
0.6694082408
0.6187141480
0.6208194689
0.6240488696
0.6362525055
0.6814737931
0.6260657562
0.6917188561
0.6271824960
0.6256659101
0.6986543910
0.6150478717
0.6242000285
0.6183371325
0.6394305133
0.6256740259
0.6284966109
0.6285619070
0.6581923225
0.6152957075
0.6198806477
0.6172573713
0.6257472523
0.6661723441
0.6271543384
0.6807504097
0.6957146800
0.6167784286
0.6303211284
0.6328447570
0.6238701513
0.6264319513
0.6276217110
0.5677642858
0.6494834790
0.7079675336
0.7095462276
0.7052565568
0.6934033678
0.6992362085
0.5001352440
0.5000055923
0.5000057200
0.7013772262
0.5000000743
0.5001420425
0.5753910229
0.5027980423
0.6480644012
0.5000005603
0.5025816002
0.6869573439
0.6576852417
0.7094609716
0.7079063366
0.7018126101
0.6652653706
0.7008459732
0.5003706923
0.5000477138
0.5000006410
0.6999841095
0.5000006025
0.5000497158
0.5170967732
0.5003932980
0.5154263398
0.6962250149
0.6076196191
0.6119437340
0.6275720439
0.6256609761
0.6168190651
0.6216766278
0.6723380573
0.7067154467
0.6028410484
0.6986594884
0.6192639553
0.6305832505
0.6872303792
0.6348275140
0.6208258433
0.6037271204
0.6105064642
0.6303187301
0.6272943376
0.6195316121
0.6582399743
0.7033701286
0.6055699010
0.6860266372
0.6167860983
0.6167474620
0.6688234192
0.6267707218
0.6240274205
0.7176515821
0.6979083952
0.7121153736
0.5000002421
0.7090744382
0.5074399573
0.6234876705
0.6481663567
0.5070689292
0.5003962253
0.5004035360
0.5000168881
0.7161170121
0.6454293687
0.7034609793
0.7059463727
0.6345947775
0.5000173002
0.7154549335
0.7030546035
0.7083620563
0.5000019109
0.7079882981
0.5010950828
0.6820586724
0.5376006542
0.5010703380
0.5001428101
0.5000019447
0.7180181420
0.6878484012
0.7081838372
0.5405517583
0.5001431703
0.5023891345
0.7336196710
0.7157623571
0.7071148596
0.6116958090
0.6119481599
0.5003055934
0.5141457227
0.6244583537
0.7411187377
0.6942126952
0.6280596722
0.7175688558
0.5774181415
0.5002549758
0.6219407853
0.6759793787
0.7067403913
0.5863593782
0.5926310395
0.6086717188
0.7421637815
0.7463767939
0.7217244949
0.6053925911
0.7295351129
0.6732632344
0.5986645506
0.5064924682
0.7348154441
0.7118654964
0.7123321366
0.6091558107
0.6164288212
0.5000375755
0.5053202197
0.6053011368
0.7357716348
0.6728636535
0.6178362434
0.7146270773
0.6364157805
0.5000367743
0.6272949030
0.6585522063
0.6924016530
0.5902837844
0.5868269981
0.6055736014
0.7404483725
0.7492660340
0.7238349100
0.6196586318
0.7232421579
0.5715402723
0.5972126995
0.6171595434
0.5000470774
0.7245045988
0.6712923623
0.7324424321
0.5010843124
0.7101981860
0.5000505490
0.5125315139
0.4966671420
0.4909529107
0.5183197262
0.4704687519
0.6827012677
0.7260343309
0.5010996852
0.7171979928
0.6952005192
0.5180120732
0.7407678315
0.5000007470
0.6491460655
0.6736969042
0.6417778041
0.7131057197
0.7055909446
0.5952267922
0.7193099501
0.5791949947
0.5000055573
0.7270255286
0.6972120365
0.7477330302
0.5003880243
0.7019732438
0.5004059576
0.5321670086
0.5155613164
0.4578634143
0.5028797106
0.4809330456
0.7095481338
0.7233001064
0.5029229164
0.7161384189
0.6737962206
0.5792812634
0.7325443788
0.5000057337
0.5822879483
0.7158939116
0.7095283784
0.6298909563
0.7147925691
0.7386536630
0.7068257940
0.6754815620
0.5027454786
0.7559532508
0.7411171706
0.7459262435
0.7393088669
0.5972826653
0.5008885499
0.7258515338
0.5178591166
0.5008879618
0.7554656009
0.6191407489
0.6953319256
0.7278251511
0.7463745240
0.7296323936
0.7392075192
0.7503515510
0.5943302769
0.5381676478
0.5002549967
0.7128329394
0.6654496567
0.6954165875
0.7197655596
0.5000431047
0.6120899961
0.7332686193
0.6731684606
0.6812221951
0.7437753796
0.7526296051
0.5011365302
0.5108824339
0.7296374017
0.7323723177
0.5015087453
0.7175629588
0.5141326774
0.5491481718
0.5986672729
0.7157806706
0.7295328754
0.7181832287
0.5007045958
0.7386189438
0.6580512609
0.5820403600
0.6952690482
0.5003617368
0.7516620600
0.7449368183
0.7464952413
0.7323947374
0.5932887997
0.5003057484
0.7237119258
0.5070887280
0.7600350112
0.6053647160
0.6744755034
0.7230382343
0.7458030918
0.7458055767
0.7459241205
0.5902856293
0.5160491673
0.5020359233
0.7044555582
0.6932660541
0.7219555389
0.5000059568
0.6196613867
0.7314922356
0.7338468915
0.7080460797
0.6595411840
0.7392060674
0.5001722466
0.5278561669
0.7277627141
0.7347650892
0.5001942899
0.7232398791
0.5714822335
0.5202649185
0.6050227843
0.7001994091
0.7357696437
0.7161885474
0.5778659714
0.5000021753
0.7197194460
0.5341104860
0.5028822876
0.6379689233
0.4933740792
0.6908998022
0.4809345781
0.7540472324
0.7178700880
0.7204857670
0.7265869748
0.5036973342
0.5808923067
0.4966682642
0.5746029711
0.5001393615
0.5452403526
0.6095508933
0.6083422735
0.5413989131
0.4623169411
0.7387764824
0.7023226331
0.6171596042
0.4786123088
0.7214760960
0.7214746440
0.6636769661
0.7254180474
0.7118124182
0.5021353341
0.6338351265
0.7118728012
0.5982146663
0.5282988745
0.7355253766
0.7552928432
0.4779640618
0.4550270134
0.7090684041
0.4794821179
0.7336024385
0.5725562244
0.5000162210
0.6949710031
0.5766764778
0.5075012192
0.4939575636
0.7064675469
0.4578643645
0.7533807595
0.7237583190
0.7118716555
0.5005974217
0.5892817602
0.5155628298
0.5701302188
0.5010874053
0.5264847393
0.5895316571
0.5245585446
0.6373272874
0.4779650050
0.7319652614
0.7151584802
0.5886836518
0.4909540351
0.7095469700
0.5682462418
0.6354228676
0.7245183975
0.7162522234
0.5007463706
0.5952273283
0.6078472009
0.5321688223
0.4842973101
0.7244119491
0.7513409628
0.5107966804
0.4623161340
0.6885177071
0.7360496084
0.7386753085
0.5808949234
0.6095420823
0.7554639373
0.5982176233
0.7258430331
0.7580532033
0.7244182699
0.6451820421
0.7499291622
0.4675127012
0.5691682681
0.5270738775
0.5043208608
0.6212781280
0.7412480384
0.4646575092
0.6885280161
0.6855031718
0.7412445044
0.7238400676
0.7503489284
0.4856843036
0.5382226229
0.5000375905
0.7619409901
0.7404492062
0.5043193483
0.5850757311
0.5550492732
0.7068079669
0.6362296931
0.7610543981
0.4489060378
0.7386502172
0.5573666463
0.7393039654
0.7272157616
0.7507138133
0.7509932880
0.5328506533
0.7339139834
0.4552227426
0.5001084066
0.5931512494
0.7492631173
0.7155266511
0.5029842914
0.7098365742
0.4393076111
0.7155143367
0.6148973053
0.5778596236
0.7203557996
0.7280438498
0.5362329835
0.5746035515
0.6274783222
0.7216306527
0.5892848858
0.5895232095
0.7544900184
0.6078509359
0.7323880574
0.7507118822
0.7445166903
0.7090748642
0.6891229881
0.7518704341
0.4806840232
0.5833336087
0.5794755512
0.5857825253
0.4484667748
0.6636863680
0.6404902350
0.7452885521
0.7393453313
0.7539013372
0.4579195986
0.5000885134
0.7159702300
0.5015082463
0.5232706252
0.5392395248
0.7202114984
0.7557957211
0.4288612852
0.5557545032
0.7459207099
0.5029849646
0.7544911442
0.7622839040
0.7273937921
0.4410226550
0.6580251513
0.5084382211
0.6862313533
0.4288323779
0.7081936400
0.5491330386
0.5725536427
0.7428983676
0.7256539424
0.5436705209
0.5701320503
0.5817930819
0.6354192892