<VTKFile type="UnstructuredGrid" version="0.1">
	<UnstructuredGrid>
		<Piece NumberOfPoints="1862" NumberOfCells="3498">
			<CellData>
				<DataArray type="Int32" Name="type" NumberOfComponents="1" Format="ascii">
0
0
0
0
0
0
0
0
0
0
0
0
0
0
0
0
1
0
0
1
0
0
0
0
0
0
0
0
0
0
0
0
0
1
0
0
0
0
0
0
0
0
0
0
0
0
0
0
0
0
1
0
0
0
0
0
0
0
0
0
0
1
0
0
0
0
0
0
0
0
0
0
0
0
0
0
0
0
0
0
0
0
0
0
0
0
0
0
0
0
0
0
0
0
0
0
0
0
0
0
0
0
0
0
0
0
0
0
0
0
0
0
0
0
0
0
0
0
0
0
0
0
0
1
0
0
0
0
0
0
0
0
0
0
0
0
0
0
0
0
0
0
0
0
0
0
0
0
0
0
0
1
0
1
1
0
0
0
0
0
0
0
0
0
0
0
0
0
1
0
1
0
0
0
0
1
0
0
0
0
0
0
0
0
1
1
0
0
0
0
0
1
0
0
0
0
0
0
0
0
1
0
0
0
0
0
0
0
0
0
0
0
0
0
0
0
0
0
0
0
0
0
0
0
0
0
0
0
0
0
0
0
0
1
0
0
0
0
0
0
0
0
0
0
0
0
0
0
0
0
0
0
0
0
0
0
0
0
0
0
0
0
0
0
0
0
0
0
0
0
0
0
0
0
0
0
0
0
0
0
0
1
0
0
0
0
0
0
0
0
0
0
0
0
0
0
0
0
0
0
0
0
0
0
0
0
0
0
0
0
0
0
0
0
0
0
0
0
0
0
0
0
0
0
0
0
0
0
0
0
0
0
1
0
0
0
0
0
0
0
0
0
0
0
0
0
0
0
0
0
0
0
0
0
0
0
0
0
0
0
0
0
0
0
0
0
0
0
0
0
0
0
0
0
0
0
0
0
0
0
0
0
0
0
0
0
0
0
0
0
1
0
0
0
0
0
0
0
0
0
0
0
0
0
0
0
0
0
0
0
0
0
0
0
0
0
0
0
0
0
0
0
0
0
0
0
0
0
0
0
0
0
0
0
0
0
0
0
0
0
0
0
0
0
0
0
0
0
0
0
0
0
0
0
0
0
0
0
0
0
0
0
0
0
0
0
0
0
0
0
0
0
0
0
0
0
0
0
0
0
0
0
0
0
0
0
0
0
0
0
0
0
0
0
0
0
0
0
0
0
0
0
0
0
0
0
0
0
0
0
0
0
0
0
0
0
0
0
0
0
0
0
0
1
0
0
0
0
0
0
0
0
0
0
0
0
0
0
0
0
0
0
0
1
0
0
0
0
0
0
0
0
0
0
0
0
0
0
0
0
0
0
0
0
0
0
0
0
0
0
0
0
0
0
0
0
0
0
0
0
0
0
0
0
0
0
0
0
0
0
0
0
0
0
0
0
0
1
0
0
0
0
0
0
0
0
0
0
0
0
0
0
0
0
0
0
0
0
0
0
0
1
0
0
0
0
0
0
0
0
0
0
0
0
0
0
0
0
0
0
0
1
0
0
0
1
0
0
0
0
0
0
0
0
0
0
0
0
0
0
0
0
0
0
0
0
0
0
0
0
0
1
0
0
0
0
0
0
0
1
0
0
0
0
0
0
0
0
0
0
0
0
0
0
0
0
0
0
0
0
0
0
0
0
0
0
1
0
0
0
0
0
0
0
1
0
0
0
0
0
0
1
0
0
0
0
0
0
0
0
0
0
0
0
0
0
0
0
0
0
0
0
0
0
0
0
0
0
0
0
0
0
0
0
0
0
0
0
0
0
1
0
0
0
0
0
1
0
0
0
0
0
0
0
1
0
0
0
0
0
0
0
0
0
0
0
0
0
1
0
0
0
0
0
0
0
0
0
0
0
0
0
0
0
0
0
0
0
0
0
0
0
0
0
0
0
0
0
0
0
0
0
0
0
0
0
0
0
0
0
0
0
0
0
0
0
0
0
0
0
0
0
1
0
0
0
0
0
0
0
0
0
0
0
0
0
0
0
0
0
0
0
1
0
0
0
0
0
0
0
0
0
1
0
0
0
0
0
0
0
0
0
0
0
0
0
0
0
0
0
0
0
0
0
0
0
0
0
0
0
0
0
1
0
1
0
0
0
0
0
0
0
0
0
0
0
0
0
0
0
0
0
0
0
0
0
0
0
0
0
0
0
1
0
0
0
1
0
0
0
0
0
0
0
0
0
0
0
0
0
0
0
0
0
0
0
0
0
0
0
0
0
0
0
0
1
0
0
0
0
0
0
0
0
0
0
0
0
0
0
0
0
0
0
0
0
0
0
0
0
0
1
0
0
0
0
0
0
0
0
0
0
0
0
0
0
0
0
0
0
0
0
0
0
0
1
0
0
0
0
0
0
1
0
0
0
0
0
0
0
0
0
0
0
1
0
0
0
0
0
0
0
0
0
0
0
0
0
0
0
0
0
0
0
0
1
0
0
0
0
0
0
0
0
0
0
0
1
0
0
0
0
0
0
0
0
0
0
0
0
0
0
0
0
0
0
0
0
0
1
0
0
0
0
0
0
0
0
0
1
1
0
1
0
1
0
0
0
0
0
0
0
0
0
0
0
1
0
0
0
0
0
1
1
0
0
0
0
0
0
1
0
0
0
0
0
1
1
1
0
0
0
0
0
0
0
0
0
0
0
0
1
1
0
0
1
0
0
0
0
0
1
0
0
0
1
0
1
0
0
0
0
0
0
0
1
0
0
0
0
0
0
0
1
0
0
1
0
0
0
0
0
0
0
0
0
0
0
0
0
0
0
1
0
0
0
0
0
0
0
0
0
0
0
0
0
0
0
0
0
0
0
0
0
0
0
0
0
0
0
0
0
0
0
0
0
0
0
0
1
0
0
0
0
0
0
1
0
0
0
1
0
0
0
0
0
0
0
0
0
0
0
1
0
0
0
0
0
0
0
0
0
0
0
0
0
0
0
0
0
0
0
0
0
0
0
0
0
0
0
0
0
0
0
0
0
0
0
0
0
0
0
0
1
1
0
0
0
0
0
0
0
0
0
0
0
0
0
1
0
0
0
0
0
0
0
0
0
0
0
0
0
0
0
0
0
0
0
0
0
0
0
0
0
0
0
0
0
0
0
0
0
0
0
0
0
0
0
0
0
0
0
0
0
0
0
0
0
0
0
0
0
0
0
0
0
0
0
0
0
0
0
0
0
0
0
0
0
0
0
0
1
1
0
0
0
0
0
0
0
0
1
0
0
0
0
0
0
0
0
0
0
0
0
0
0
0
0
0
0
0
0
0
0
0
1
0
0
0
0
0
0
0
0
0
0
0
0
0
0
0
0
1
0
0
0
0
0
0
0
0
0
0
0
0
0
0
0
0
0
0
0
0
0
0
0
0
0
0
0
0
0
0
0
0
0
0
0
0
0
0
0
0
0
0
0
0
0
0
0
0
0
0
0
0
0
0
0
0
0
0
0
0
0
0
0
0
0
0
0
0
0
0
0
0
0
0
0
0
0
0
0
0
0
0
0
0
0
0
0
0
0
0
1
1
0
0
0
0
0
1
0
0
0
0
0
0
0
0
0
0
0
0
1
0
0
0
0
0
0
0
0
0
0
0
0
0
0
0
0
0
0
0
0
0
0
0
0
0
0
0
0
0
0
0
0
0
0
0
0
0
0
0
0
0
0
0
0
0
0
0
0
0
0
0
0
0
1
0
1
0
0
0
0
0
0
0
0
0
0
0
0
0
0
0
0
0
0
1
0
0
0
0
0
0
0
0
0
0
0
0
0
0
0
0
0
0
0
0
0
0
0
0
0
0
0
0
0
0
0
0
0
0
0
0
0
0
0
0
0
0
0
0
0
0
0
0
0
0
0
0
0
0
0
0
0
0
0
0
0
0
0
0
0
0
0
0
0
0
1
0
0
0
0
0
0
0
0
0
0
1
0
0
0
0
0
0
0
0
0
0
0
0
0
0
0
0
0
0
0
0
0
0
0
0
0
0
0
0
0
0
0
0
0
0
0
0
0
1
0
0
0
0
0
0
0
0
0
0
0
0
0
0
0
0
0
0
0
0
0
0
0
0
0
0
0
0
0
0
0
0
0
0
0
0
0
0
0
0
0
0
0
0
0
0
0
0
0
0
0
0
0
0
0
0
0
0
0
0
0
0
0
0
0
0
0
0
0
0
0
0
0
0
0
0
0
0
0
0
0
1
0
0
0
0
0
0
0
0
0
0
0
0
0
0
0
0
0
0
0
0
0
0
0
0
0
0
0
0
0
0
0
0
0
0
0
0
0
0
0
0
0
0
0
0
0
0
0
0
0
0
0
0
0
0
0
0
0
0
0
0
0
0
0
0
0
0
0
0
0
0
0
0
0
0
0
0
0
0
0
0
0
0
0
0
0
0
0
0
0
0
0
0
0
0
0
0
0
0
0
0
0
0
0
0
0
0
0
0
0
0
0
0
0
0
0
0
0
0
0
0
0
0
0
1
0
0
0
0
0
0
0
0
0
0
0
0
0
0
0
0
0
0
0
0
0
0
0
0
0
0
0
0
0
0
0
0
0
0
0
0
0
0
0
0
0
0
0
0
0
0
0
0
0
0
0
0
0
0
0
0
0
0
0
0
0
0
0
0
0
0
0
0
0
0
0
0
0
0
0
0
0
0
0
0
0
1
0
0
0
0
0
0
0
1
0
0
0
0
0
0
0
0
0
0
0
0
0
0
0
0
0
0
0
0
0
0
0
0
0
0
0
0
0
0
0
0
0
0
0
0
0
1
0
0
0
0
0
0
0
0
0
0
0
0
0
0
0
0
0
0
0
0
0
1
0
0
0
0
0
0
0
0
0
0
0
0
1
1
0
0
0
0
0
0
0
0
0
0
0
0
0
0
0
1
1
0
1
0
0
0
0
0
0
0
0
0
1
0
0
0
0
0
0
1
0
0
0
0
0
0
0
0
0
0
1
0
0
0
0
1
0
1
0
0
0
0
0
0
0
1
0
0
0
1
0
0
0
1
0
1
1
0
0
1
1
0
0
0
1
0
0
0
1
0
0
0
0
0
0
0
0
0
1
0
0
0
0
0
0
1
0
0
0
0
0
0
0
0
0
0
0
0
0
0
0
0
0
0
0
0
0
0
0
0
0
0
0
1
0
0
1
0
0
0
0
0
0
0
0
0
0
0
0
0
0
0
0
0
0
1
0
0
1
0
0
0
0
0
0
0
0
0
0
0
1
0
0
1
0
0
0
0
0
0
0
0
0
0
0
1
1
0
0
0
0
0
0
0
0
0
0
0
0
1
0
0
0
0
0
0
0
0
0
0
0
0
0
0
0
0
0
1
0
0
0
0
0
0
0
0
0
0
0
0
0
0
0
0
0
1
0
0
0
0
0
0
0
0
0
0
0
0
0
0
0
0
0
0
0
0
0
0
0
0
0
0
0
0
0
0
0
0
0
0
0
0
0
0
0
0
1
0
0
0
0
0
0
0
0
0
0
0
0
0
0
0
0
0
0
0
0
0
0
0
0
0
0
0
0
0
0
0
0
0
0
0
0
0
0
0
0
0
0
0
0
0
1
0
0
0
0
0
0
0
0
0
0
0
0
0
0
0
0
0
0
0
0
0
0
0
0
0
0
0
0
0
0
0
0
0
0
0
0
0
0
0
0
0
0
0
0
0
0
0
1
0
0
0
0
0
0
0
0
0
0
1
0
0
0
0
0
0
0
0
0
0
0
0
0
0
0
1
0
0
1
0
0
0
0
0
0
0
0
0
0
0
0
0
0
0
0
0
0
0
0
0
0
0
1
0
0
0
0
0
0
0
0
0
0
0
0
0
0
0
0
0
0
0
0
0
0
0
0
0
0
0
0
0
0
0
0
0
0
0
1
0
0
0
0
0
0
0
0
0
0
0
0
0
0
0
0
0
0
0
0
0
0
0
0
0
0
0
0
0
0
0
0
0
0
0
0
0
0
0
0
0
0
0
0
0
0
0
0
0
0
0
0
0
0
0
0
0
0
0
0
0
0
0
0
0
0
0
0
0
0
0
0
0
0
0
0
1
0
0
0
0
0
0
0
0
0
0
0
0
0
0
0
0
0
0
0
0
0
0
0
0
0
0
0
0
0
0
0
0
0
0
0
0
0
0
0
1
0
0
0
0
0
0
0
0
0
0
0
0
1
1
0
0
0
0
0
0
0
0
0
0
0
0
0
0
0
0
0
0
0
0
0
0
0
0
0
0
0
0
0
0
0
0
0
0
0
0
0
0
0
0
0
0
0
0
0
0
0
0
0
0
0
0
0
0
0
0
0
0
0
0
0
0
0
0
0
0
0
0
0
0
0
0
0
0
0
0
0
0
0
0
0
0
0
0
0
0
0
0
0
0
0
0
0
0
0
0
0
0
0
0
0
1
0
1
0
0
0
0
0
0
0
1
1
1
1
0
0
0
0
0
0
0
0
0
0
0
0
0
0
0
0
0
0
0
0
0
0
0
0
0
0
0
0
1
1
0
0
0
0
0
0
0
0
0
0
0
0
0
0
0
0
0
0
1
0
0
0
0
0
0
0
1
1
0
1
1
0
0
1
0
0
0
0
0
0
0
1
0
1
0
0
0
0
0
0
0
0
0
0
0
0
0
0
0
0
0
0
0
0
0
0
0
0
0
0
0
1
1
0
0
0
1
1
0
0
0
0
1
0
0
1
0
1
0
0
0
0
0
1
0
0
0
1
0
0
0
0
0
0
0
0
0
0
0
0
0
0
0
0
0
0
0
0
0
0
0
0
0
0
0
1
0
0
0
0
0
0
1
0
0
0
0
0
0
0
0
0
0
0
0
0
0
0
0
0
0
0
0
0
0
0
0
0
0
0
0
0
1
0
1
0
0
0
0
0
0
0
1
0
0
0
0
0
0
0
0
0
0
0
1
0
0
0
0
0
0
0
0
0
1
0
0
0
0
0
0
0
1
0
0
0
0
0
0
0
1
0
0
0
0
0
0
0
0
0
0
0
0
0
0
0
0
0
0
0
1
0
1
0
0
0
0
0
1
0
0
0
0
0
0
0
0
0
0
0
0
0
0
0
0
0
0
0
0
0
0
0
0
0
1
0
1
0
0
0
0
0
0
0
0
0
1
0
0
0
0
0
1
0
0
0
0
0
0
0
0
0
0
0
0
0
0
0
1
0
0
0
0
0
0
0
0
1
0
0
0
0
0
0
0
0
0
0
0
0
0
0
0
0
0
0
0
0
0
0
0
0
0
0
0
0
0
0
1
0
0
0
0
0
0
0
0
0
0
0
0
0
0
0
0
1
0
0
0
0
0
0
0
0
1
0
0
0
0
0
0
0
0
0
1
0
0
0
0
0
1
0
0
0
0
0
0
0
0
0
0
0
0
0
0
0
0
0
0
0
1
0
0
0
0
0
0
1
0
0
0
0
0
0
0
0
1
0
0
0
0
0
0
0
0
0
0
0
0
0
0
1
0
0
1
0
0
0
1
0
0
0
0
0
0
0
0
0
0
0
0
0
0
0
0
1
0
0
0
0
0
0
0
0
0
0
1
0
1
0
0
0
0
0
0
1
0
0
0
0
0
0
0
0
0
0
0
0
0
0
0
0
0
0
0
0
0
0
0
0
0
0
0
1
1
0
0
0
0
0
0
1
0
0
0
0
0
0
0
0
0
0
0
0
0
1
0
0
0
0
0
0
0
1
0
0
0
0
0
0
0
0
0
0
0
0
0
0
0
0
0
0
0
0
0
0
0
0
0
0
0
1
0
0
0
0
0
0
0
0
0
0
1
0
0
1
0
0
0
0
0
0
0
0
0
0
0
0
0
0
0
0
0
0
0
0
0
0
0
0
0
0
0
0
0
1
0
0
0
0
0
0
0
1
0
0
0
0
0
0
0
1
0
0
0
0
1
0
0
0
0
0
0
0
0
0
0
0
1
0
1
0
0
0
1
0
				</DataArray>
				<DataArray type="Float64" Name="h" NumberOfComponents="1" Format="ascii">
0.8235765838
0.8235896040
0.8197529632
0.8173395856
0.8227439427
0.8220691510
0.8196984570
0.8175199717
0.8205334021
0.8161101253
0.8156290431
0.8194938327
0.8234519940
0.8160632074
0.8205546656
0.8261752659
0.8161581990
0.8199085919
0.8236247065
0.8133389395
0.8207632101
0.8282968731
0.8257797934
0.8255313889
0.8157806580
0.8296461356
0.8311709142
0.8317678669
0.8260093441
0.8134489363
0.8122599709
0.8257075620
0.8294206097
0.8200268836
0.8354940272
0.8274371034
0.8247196236
0.8285721237
0.8297764872
0.8238116576
0.8257850516
0.8340312861
0.8303956881
0.8282454233
0.8271371725
0.8310087743
0.8287081014
0.8385658017
0.8777027639
0.8679081143
0.8260975504
0.8296171303
0.8282929850
0.8454483702
0.8327867046
0.8345459893
0.8311674602
0.8452819504
0.8513745724
0.8460102954
0.8587310946
0.8547506221
0.8772362816
0.8297644574
0.8299161609
0.8327290863
0.8559333301
0.8680133914
0.8534747032
0.8486381580
0.8492199879
0.8343402280
0.8316069574
0.8521382705
0.8522912911
0.8236982021
0.8476582289
0.8575716888
0.8421284115
0.8270065619
0.8656615692
0.8358554276
0.8949634271
0.8564954701
0.8283801325
0.8241583915
0.8685979235
0.8429623759
0.8606160572
0.8917144607
0.8736819689
0.8253412872
0.8623203484
0.8840308366
0.8299254424
0.8277859951
0.8310461533
0.8279333361
0.8294252162
0.8703802631
0.8913612098
0.8650369347
0.8390344627
0.8400788823
0.8152043670
0.8443191695
0.8209445641
0.8849676024
0.8599582222
0.8338249048
0.8758611514
0.8855796905
0.8673891171
0.8757617894
0.8494971968
0.8840728088
0.8424320418
0.8158406494
0.8818910128
0.8598146020
0.8146982880
0.8353933102
0.8179164061
0.8067413413
0.8689131334
0.8847881017
0.8520643688
0.8084931536
0.8804549027
0.8852996346
0.8795167444
0.8264062292
0.8612444214
0.8821551138
0.8111960803
0.8811169010
0.8286618181
0.8837736794
0.8724598637
0.8330492973
0.8108090126
0.8081098268
0.8800225205
0.8353568560
0.8211718373
0.8767399948
0.8307465197
0.8889518655
0.8089956350
0.8874319314
0.8276256062
0.8832768010
0.8837873468
0.8840182622
0.8702002699
0.8864997961
0.8858804965
0.8153204118
0.8863392105
0.8028335681
0.8380150800
0.8881875914
0.8321571359
0.8087425771
0.8117086033
0.8888682224
0.8363251097
0.8358705510
0.8010056474
0.8851046805
0.8851804277
0.7996675540
0.8845675581
0.8159123603
0.8396171698
0.8850202595
0.8395612959
0.8929992160
0.8854962027
0.8089288777
0.8879165025
0.8373952265
0.8035161063
0.8144428843
0.8004111302
0.7869757877
0.8357788441
0.8852371216
0.7987358350
0.7844389755
0.8329274589
0.8853679608
0.7953069854
0.8329770213
0.8852975782
0.8928673253
0.8157833442
0.8260978194
0.8279312997
0.8870332417
0.7830465138
0.8122933856
0.7864678605
0.8861257266
0.8180058704
0.8105898595
0.8384456213
0.8296678983
0.8205704175
0.8428351970
0.8359152160
0.7940020473
0.8147114806
0.8088014079
0.8346313846
0.8285502631
0.8410978656
0.8161903340
0.8406947376
0.8029316567
0.8127664484
0.8833644366
0.8428973933
0.8548632537
0.8081266721
0.8920821191
0.8964585795
0.8250604049
0.8093553777
0.8922251763
0.8886762568
0.8704033740
0.8139157109
0.8889001217
0.8949760556
0.8385359034
0.8352071950
0.8476016635
0.8008376324
0.8522374963
0.8403984699
0.8379966186
0.8186414123
0.8469854672
0.8351199953
0.8438398151
0.8160600316
0.8417653930
0.8434662276
0.8240201118
0.8503952615
0.8471044726
0.8220929820
0.8264680759
0.8311886515
0.8170749033
0.8460911416
0.8402254069
0.8087921409
0.8647288208
0.8509288056
0.8022378847
0.8127690317
0.8435550914
0.8077942781
0.8963396963
0.8953687260
0.8102725665
0.8894834623
0.8773028504
0.8972727132
0.8456082734
0.8907650856
0.8306989673
0.8473111980
0.8074742352
0.8038478346
0.8265925060
0.8612017906
0.8054134243
0.8968803886
0.8915448102
0.8932253161
0.8984127685
0.8899690334
0.8797161957
0.8171601713
0.8589580090
0.8239928475
0.8271998471
0.8532988443
0.8390537041
0.8479862933
0.8444089953
0.8618655901
0.8464257363
0.8553038116
0.8545572244
0.8329530998
0.8170657227
0.8258086649
0.8496462327
0.8471908186
0.8369929098
0.8295092148
0.8617428515
0.8542872766
0.8557024898
0.8304190816
0.8009970176
0.8177944399
0.8033922111
0.8918256330
0.8118956049
0.8949992721
0.8535188008
0.8595291551
0.8862581332
0.8980025408
0.8526590019
0.8312844573
0.8002852380
0.8683990761
0.8991493631
0.7984608433
0.8056744885
0.8149746364
0.8960464991
0.8343712031
0.8715171838
0.8958669586
0.9004559860
0.8939380179
0.8109919196
0.8499700608
0.8025047000
0.8839713988
0.8641602526
0.8977779692
0.8721276528
0.8547010674
0.8645631557
0.8328285699
0.8452262032
0.8600040318
0.8706207608
0.8549748366
0.8364960732
0.8836808093
0.8305090673
0.8457667915
0.8289493240
0.8603888031
0.8399215683
0.8939213378
0.8726921074
0.8410414714
0.8627312845
0.8656719576
0.8490445231
0.8548881521
0.8912085655
0.8257998099
0.8540040742
0.8355428995
0.8662219183
0.8615160297
0.8517554379
0.8180454149
0.8351237696
0.8356634575
0.8707108621
0.8428669637
0.8992584260
0.8408958986
0.8212455518
0.9001772313
0.8759828313
0.8894140057
0.8061469008
0.8188349044
0.8781315262
0.8938127022
0.8687734698
0.8578986956
0.8606839569
0.7982037716
0.8074885710
0.7997989764
0.9133242440
0.8954230720
0.8200530933
0.8225262281
0.8996465904
0.9005865615
0.8389045434
0.8814235118
0.9039449587
0.9089576871
0.9081941381
0.7993920445
0.8914400127
0.9112509303
0.8604106686
0.9042906778
0.8976521085
0.8755721689
0.8051153708
0.7991366627
0.9129927427
0.8075168431
0.8438569249
0.8410989822
0.8495374196
0.8753713339
0.8924967707
0.8757277061
0.8741469951
0.8403476842
0.8140406862
0.8765183504
0.8797713946
0.8664866029
0.8702731343
0.8943526092
0.8131948172
0.8964526036
0.8426634304
0.8585097095
0.8541243322
0.8210735167
0.8983758248
0.8401123044
0.8824824391
0.8356069957
0.8207950272
0.8936662322
0.8588279678
0.8958276516
0.8900647824
0.8686608919
0.8791374709
0.8720038108
0.8772349406
0.8859503115
0.8761219996
0.8067569372
0.8818110300
0.8252664960
0.8706663459
0.8577489207
0.8932000899
0.8351152559
0.8277736817
0.8624622719
0.8797777079
0.9001194144
0.8873443975
0.8579310020
0.9021877643
0.8503759359
0.8455851253
0.8861571365
0.8942177771
0.8694508740
0.8302461938
0.8067634648
0.8026805131
0.9108307154
0.8780050991
0.8989459380
0.8838722169
0.8679233241
0.8727632886
0.8302074280
0.8034248501
0.9164101448
0.9192409691
0.8525935308
0.8806114412
0.8886378491
0.8585505711
0.8833545628
0.8978047095
0.9305858251
0.9155320896
0.8840138419
0.8969465379
0.8142787865
0.9087162660
0.8986437350
0.8133705327
0.9264102703
0.8613489726
0.8814203108
0.9120052186
0.8862967229
0.9344641594
0.8490174356
0.8938932686
0.9212339230
0.9070288655
0.9186677343
0.9089431651
0.9081888381
0.8791612909
0.7992327800
0.8450740586
0.8527013302
0.9098845285
0.8969686074
0.8656877344
0.9005013518
0.8838614764
0.8999223082
0.8525835160
0.8789798130
0.8783222864
0.8573331935
0.8925336652
0.8656963164
0.8618131512
0.8856574244
0.8941699054
0.8928128439
0.8874093440
0.8911878603
0.8797182007
0.9022826526
0.8771625411
0.8629478182
0.8861477870
0.8556517440
0.8830135146
0.8779914532
0.9229953838
0.8613359813
0.8862889439
0.8450660906
0.9022801286
0.8585710618
0.9252270047
0.9177370515
0.8495161204
0.9242695274
0.8938824289
0.8860581121
0.8727576242
0.9252343012
0.9122264115
0.9036410230
0.9217293455
0.8891740819
0.9145882482
0.8645285465
0.9102074148
0.8705590160
0.9050810158
0.8785227440
0.8943588043
0.8833815973
0.8971997011
0.8873644555
0.8833420343
0.9192190180
0.8588976236
0.8791487319
0.8067878574
0.9145653298
0.8932695431
0.8890606458
0.8986009273
0.9032347554
0.8994640184
0.8140464303
0.8672820608
0.8450892931
0.9007970751
0.9004946673
0.8952594863
0.9033598534
0.8253188313
0.9212292555
0.8912473995
0.9057150492
0.8927637086
0.8958751493
0.8411711870
0.8067807974
0.9047308869
0.8965224648
0.9258832149
0.9165409414
0.9218103509
0.9108792324
0.8277793972
0.8901093760
0.8597757825
0.9271689169
0.9182776503
0.9062779212
0.8994789139
0.9168391887
0.9021835836
0.8131951944
0.9188948326
0.9277508897
0.9249908461
0.8757769600
0.8857303777
0.9258625425
0.8846910745
0.9213044450
0.8976498234
0.9007963125
0.8986809741
0.9227667863
0.8829995153
0.8890440764
0.8771618093
0.8928030384
0.9001917804
0.9065396458
0.8753755038
0.8573247997
0.9024909930
0.8920867023
0.9592846435
0.8645162634
0.9099444992
0.9277486542
0.8987284368
0.9149815050
0.8705681922
0.8925191097
0.8833704670
0.8891619322
0.9488334171
0.9622291498
0.9356252699
0.9138866232
0.8495098927
0.9246864488
0.9280663083
0.8969610996
0.9232092509
0.9175593292
0.9145850988
0.9227977994
0.9276235460
0.8915074285
0.9050115214
0.8725120736
0.8972463418
0.8877884425
0.9009037006
0.8922401103
0.8938720554
0.9428594122
0.9046314549
0.8652362292
0.8901157617
0.9300616411
0.9544483373
0.9624937405
0.9359986885
0.8850027191
0.9036796877
0.8812898423
0.9021083764
0.9492535420
0.9566319735
0.9229894098
0.9200177786
0.9276136140
0.9046571702
0.9559093232
0.9033572845
0.9086104500
0.9865749718
0.9821297676
0.9245776841
0.9256188697
0.9647870610
0.9223212479
0.9167067418
0.8974870475
0.9769411639
0.9819828299
0.9843161778
0.9181643123
0.9127106869
0.8923015961
0.8975825169
0.9040397150
0.9734135181
0.9860534710
0.9405690268
0.9581086524
0.8852914243
0.9949030223
0.9987455298
0.8900423965
0.9622297396
0.9484156318
0.8857319000
1.0017807375
0.9217209283
0.9770126235
0.9051865070
0.9124171019
1.0017840839
0.8976488651
0.9929727286
0.9730186575
0.8971798911
0.9602397664
0.8927476613
0.8874783584
0.9523824937
0.9440690422
0.8831568146
0.8225490377
0.8224342734
0.8224553620
0.8225580821
0.8184125098
0.8194725722
0.8156038181
0.8198857862
0.8238321807
0.8220500108
0.8227634977
0.8238428543
0.8205484255
0.8205473042
0.8196712136
0.8174794959
0.8199118753
0.8184353119
0.8219472028
0.8199044155
0.8173630521
0.8197769374
0.8236125266
0.8134219487
0.8246868660
0.8181392782
0.8175368601
0.8296302330
0.8157733150
0.8161181549
0.8250381761
0.8234686772
0.8233973629
0.8310477495
0.8266200503
0.8174956567
0.8122518737
0.8219585610
0.8200001165
0.8293524628
0.8256910904
0.8333909363
0.8237903340
0.8308033183
0.8161661588
0.8262026524
0.8303758788
0.8297758967
0.8181564763
0.8247019740
0.8257673578
0.8160838673
0.8133440833
0.8234197672
0.8257890227
0.8400148588
0.8283156948
0.8286196283
0.8250617085
0.8207857114
0.8266389538
0.8271991940
0.8334116131
0.8385366966
0.8310741364
0.8271162362
0.8260698305
0.8286930588
0.8317624338
0.8255496672
0.8260113763
0.8311485198
0.8314921694
0.8312066451
0.8289670982
0.8211549644
0.8308074664
0.8350578994
0.8321544465
0.8333866298
0.8282772550
0.8400452673
0.8762352199
0.8694674095
0.8272230576
0.8286432223
0.8312879842
0.8334096765
0.8274540855
0.8299151515
0.8285857588
0.8371958141
0.8355226473
0.8771994585
0.8679591720
0.8348586910
0.8247441330
0.8297462711
0.8350775209
0.8444108501
0.8453519092
0.8282397557
0.8520911515
0.8453167024
0.8343168497
0.8315791201
0.8508787506
0.8310142113
0.8286651855
0.8289911987
0.8570887504
0.8321836978
0.8340525004
0.8476254625
0.8491885225
0.8528747670
0.8522490964
0.8315067076
0.8312574635
0.8534479031
0.8321738719
0.8211675865
0.8486111904
0.8313111127
0.8372267376
0.8298565800
0.8348731170
0.8598112262
0.8404616951
0.8645809967
0.8777325910
0.8296277132
0.8695243271
0.8310044799
0.8358538207
0.8564475033
0.8386869026
0.8762750043
0.8679515293
0.8587518676
0.8547725059
0.8312674298
0.8615186919
0.8529110828
0.8514123860
0.8451564077
0.8453491127
0.8273775507
0.8342373522
0.8444448257
0.8322042900
0.8390585168
0.8328084357
0.8555538397
0.8509033690
0.8571121449
0.8345770407
0.8383277488
0.8515671312
0.8310372016
0.8454709988
0.8453868527
0.8460436190
0.8252899940
0.8453115853
0.8286785052
0.8622974504
0.8598460670
0.8400484729
0.8294189318
0.8387057120
0.8313316286
0.8404910531
0.8650234702
0.8516530885
0.8668640979
0.8486555196
0.8327385384
0.8913689493
0.8559747904
0.8379444200
0.8279135992
0.8626953200
0.8277740798
0.8400520443
0.8646409523
0.8703695921
0.8442770865
0.8298687195
0.8933507718
0.8383407293
0.8599203193
0.8855571226
0.8615410708
0.8516044731
0.8673595707
0.8390861467
0.8237360111
0.8723962045
0.8451924662
0.8576030532
0.8342656039
0.8715319531
0.8274051349
0.8758078734
0.8338296935
0.8555835529
0.8668877045
0.8933283128
0.8436146018
0.8627093378
0.8241688951
0.8353939621
0.8604121968
0.8379737611
0.8217942330
0.8400792094
0.8486797244
0.8284069837
0.8270372083
0.8686078504
0.8949384632
0.8656725040
0.8424312072
0.8421564975
0.8517178905
0.8147007907
0.8430004946
0.8313568717
0.8715399115
0.8263897669
0.8632395333
0.8218467825
0.8847793622
0.8668582610
0.8740668169
0.8606485975
0.8299452108
0.8840661553
0.8860058881
0.8917114976
0.8736946562
0.8837405507
0.8460187500
0.8688684291
0.8520265565
0.8724812177
0.8853167670
0.8390378777
0.8883947668
0.8580438356
0.8436230379
0.8218029252
0.8604486442
0.8766391459
0.8111912483
0.8811115949
0.8612062217
0.8152108225
0.8310892498
0.8211414916
0.8490853748
0.8081147532
0.8687887419
0.8218609412
0.8859870132
0.8757845583
0.8849790883
0.8251790017
0.8460444293
0.8740877449
0.8495217106
0.8090049382
0.8633147615
0.8800352107
0.8044737417
0.8840558621
0.8668934067
0.8767450634
0.8837556600
0.8209848167
0.8114497056
0.8212725400
0.8432038015
0.8842173052
0.8883931583
0.8766713018
0.8227588851
0.8816207041
0.8897936267
0.8729097731
0.8598527881
0.8581752392
0.8832942454
0.8158358858
0.8753704212
0.8818984697
0.8142335934
0.8276143801
0.8838070044
0.8701973752
0.8252028273
0.8044676674
0.8358472710
0.8117048927
0.8688485721
0.8857505324
0.8114397490
0.8063026646
0.8890322416
0.8368679807
0.8491788049
0.8067287590
0.8804416799
0.8379850371
0.8122827325
0.8179578329
0.8795137526
0.8114665465
0.8321400656
0.8781517312
0.8882051759
0.8084883130
0.8863550370
0.8729077771
0.8286834439
0.8821377136
0.8850073100
0.8307445783
0.8897879034
0.8846546002
0.8837525043
0.8845832775
0.8126918336
0.8214808712
0.8724599251
0.8142559611
0.8433435361
0.8227658743
0.8841978342
0.8213107610
0.8753655276
0.8851229295
0.8782511078
0.8816036576
0.8851973103
0.8159042362
0.8874173336
0.8035156611
0.8272317629
0.8122813852
0.8063023884
0.8911702756
0.8852463478
0.8857797494
0.8353924860
0.8889357278
0.8307697429
0.8089250962
0.8890208972
0.8114974465
0.8369514130
0.8082069862
0.8108135042
0.8879356051
0.8781404027
0.8395310239
0.8764839184
0.8330830705
0.8857300870
0.8044017836
0.7987362911
0.8864760344
0.8858630789
0.8214911037
0.8185105913
0.8849872712
0.8096421624
0.8127127200
0.8308374800
0.8004131578
0.8846326154
0.8840002649
0.8153241063
0.8782413178
0.8357598224
0.8170893427
0.8853132840
0.8363553512
0.8044033042
0.8911553520
0.8928907934
0.8082085118
0.8857634318
0.8764772401
0.8904732617
0.7977759341
0.8852263906
0.8272940914
0.8055944152
0.8853813861
0.8807352446
0.8087437627
0.8888487390
0.8329612233
0.8909691401
0.8028339424
0.8122420934
0.8853042570
0.7996661758
0.7864725024
0.8396427706
0.8861371034
0.8185803729
0.8010016759
0.7830526556
0.8096575007
0.8279076328
0.8854874581
0.8854816065
0.8150420259
0.7977757195
0.8055951940
0.7940057385
0.8909505769
0.8904580643
0.8088965976
0.8946901613
0.8374160516
0.8807214996
0.8850039495
0.8171398609
0.7928843401
0.7886760255
0.8929755211
0.8147086521
0.8205376627
0.8329494920
0.8886879249
0.8852901298
0.7844328134
0.8854735526
0.8871389645
0.8865948326
0.8144865888
0.7869713440
0.8852238082
0.8127380549
0.8160625034
0.8438189696
0.8218008387
0.8351109808
0.8261235450
0.7886686760
0.8195714267
0.8008809468
0.8469645421
0.8232150933
0.8150470568
0.8351889508
0.7953013205
0.7963114902
0.8946707047
0.8157873276
0.8041189403
0.8402075176
0.8291908476
0.8264482378
0.8460684910
0.8220914539
0.8417555099
0.7928769036
0.8008463416
0.8088972870
0.8901829924
0.8166434108
0.8180295319
0.8871298140
0.8796287973
0.8455979032
0.8865831100
0.8471009725
0.8053681816
0.8931946940
0.8968890432
0.8968686200
0.8170360806
0.8102395213
0.8907427946
0.8870231618
0.8645643277
0.8077283075
0.8894816292
0.8982318870
0.8963665876
0.8305161419
0.8359291383
0.8532839711
0.8314125112
0.8029253752
0.8552965583
0.8390394368
0.8232189619
0.8195951727
0.8218076817
0.8086192969
0.8212157265
0.8444020015
0.8239964112
0.8008770468
0.8428590776
0.8296778029
0.8384703154
0.8105837524
0.8407002906
0.8496328126
0.8304207456
0.7963024232
0.8556873320
0.8471858765
0.8161901147
0.8285735542
0.8294828558
0.8379721977
0.8121323586
0.8411241837
0.8291963583
0.8346496753
0.8041084667
0.8705077332
0.8526628919
0.8192758237
0.8024651697
0.8055477783
0.8341410563
0.8140194842
0.8982184502
0.8949569227
0.8960047265
0.8093942214
0.8888978186
0.8996101538
0.8713643258
0.8958560400
0.8429116235
0.8901683442
0.8922378048
0.8386919107
0.8550126891
0.8118601291
0.8002422692
0.8176214385
0.8532916592
0.8081865572
0.8964468588
0.8968435530
0.8918132711
0.8166706263
0.8920845416
0.8991541660
0.8861965718
0.8998642780
0.8834183992
0.8251944266
0.8641564049
0.8408094362
0.8186355236
0.8086163231
0.8328344519
0.8476196608
0.8404148544
0.8272249270
0.8549739655
0.8212502590
0.8380043936
0.8645709299
0.8452108009
0.8522487861
0.8314151713
0.8603856368
0.8399274636
0.8121216460
0.8205851473
0.8434819224
0.8471046486
0.8355099028
0.8480412031
0.8312130619
0.8379733229
0.8656706415
0.8540009664
0.8504132078
0.8240184749
0.8050860752
0.8267863732
0.7990771609
0.8915380355
0.8075070526
0.8914072017
0.8613728006
0.8606905692
0.8900078897
0.8998672958
0.9001403429
0.8976232735
0.8268231745
0.8509268637
0.8223457973
0.8039366411
0.8602296726
0.8984022191
0.7981646201
0.8129277015
0.8073795691
0.8954427154
0.8193121483
0.8987267207
0.8437659918
0.8774032340
0.8972793139
0.9001485256
0.8937794170
0.8188039912
0.8406842834
0.8022873065
0.8780321629
0.8996038310
0.8924486902
0.8210705500
0.8365236759
0.8403115988
0.8589662609
0.8408084795
0.8947173356
0.8861686160
0.8741557611
0.8397682734
0.8541096714
0.8618626810
0.8384894652
0.8702356563
0.8969774840
0.8271939547
0.8464405192
0.8272682283
0.8664946352
0.8753818147
0.8479898651
0.8438505577
0.8668228912
0.8208182855
0.8426717118
0.8294582151
0.8616608216
0.8514237295
0.8885533477
0.8214016845
0.8455527420
0.8310973241
0.8545659449
0.8329496915
0.8916861001
0.8911496805
0.8761317422
0.8322660848
0.8624637134
0.8617492252
0.8484804010
0.8611085652
0.8941115794
0.8205752729
0.8542896543
0.8370222368
0.8591448594
0.8720132985
0.8480374024
0.8496760784
0.8618120554
0.8145434234
0.8296130911
0.8317620032
0.8747109933
0.8503858066
0.9115235713
0.8977465330
0.8382537940
0.8501782160
0.9134072083
0.8979094087
0.8141976575
0.9004715913
0.8806153800
0.8833924280
0.9063203391
0.8839622700
0.9087229914
0.9195025720
0.8133557516
0.8987442536
0.8110191173
0.9064967107
0.8840401628
0.8972437641
0.8939559176
0.8694575248
0.8488759638
0.8595191374
0.7985201640
0.8151411978
0.9200246018
0.7991911892
0.9186652683
0.8941665169
0.8301824024
0.8314977835
0.9062814199
0.8989035893
0.8301157699
0.9001560185
0.8745034851
0.8772951810
0.9061370635
0.8946356918
0.9121128020
0.9157187991
0.8026543503
0.8950220269
0.8268656559
0.9182859043
0.8685462555
0.9108355009
0.8980276299
0.8678202721
0.8010305467
0.8034899287
0.9192516199
0.8033713475
0.8333646349
0.8836868110
0.8489872541
0.8934033134
0.8783166789
0.8397624222
0.8618197885
0.8713600805
0.8706148404
0.8958484057
0.8726937805
0.8823304710
0.8958013924
0.8951232662
0.8721167350
0.8453499603
0.8072996524
0.8668349547
0.8151023162
0.8683976395
0.8788043883
0.8600005405
0.8763529845
0.8970336189
0.8169242755
0.8785102925
0.8452999456
0.8629486840
0.8990171383
0.8364896898
0.8332991595
0.8616895087
0.8547112192
0.8615292289
0.8765112594
0.9036084733
0.8943295567
0.8151127759
0.8556560059
0.8970596726
0.8384981618
0.8862034625
0.8974333292
0.8514178165
0.8365628838
0.8294659260
0.8202812561
0.8942961175
0.8305068065
0.8908688368
0.8667671693
0.8584957314
0.8986949988
0.8824766278
0.8517606649
0.8597231970
0.8705560598
0.8662187240
0.8947799628
0.8821989149
0.8888263424
0.8919663457
0.8726833536
0.8549276192
0.8036223579
0.8834779008
0.8834734150
0.8740585972
0.8591353915
0.8837200961
0.8939688145
0.8315725070
0.8694943796
0.8532335642
0.8955708931
0.8296044859
0.8179352976
0.8356086037
0.8490660286
0.8627305848
0.8684108865
0.9001539105
0.8887936936
0.8180608977
0.8493922106
0.8935430790
0.8317539280
0.8747439522
0.9032475922
0.8428606213
0.8457952675
0.8322590431
0.8289707135
0.8821750707
0.8954635127
0.9213040844
0.9168272422
0.8946682857
0.8687666235
0.8886340178
0.8390758394
0.9120974292
0.8985981466
0.8070261713
0.7994285959
0.9042869478
0.9271579424
0.8635045079
0.8833909950
0.8717657036
0.9006253685
0.9180375595
0.8823725716
0.9276175469
0.8756632419
0.8986179620
0.9128109773
0.9115116200
0.9115090962
0.9039366970
0.9021575130
0.9021536673
0.8726170725
0.8200765329
0.8076116934
0.9134246428
0.9129817852
0.9173198852
0.8465631417
0.8759768309
0.8450728192
0.9058122526
0.8905870510
0.9017290782
0.8568497059
0.8867736334
0.9020367364
0.8781170636
0.8993033307
0.9249875934
0.9111760285
0.8894537521
0.8927224234
0.8213915253
0.9061323611
0.8949844994
0.8061643945
0.9173139526
0.9231955918
0.8536128270
0.8772912794
0.8704954643
0.8979389760
0.9165789011
0.8835998582
0.9284124988
0.8580510005
0.8905811842
0.9147747556
0.9017815273
0.9133093811
0.9063087990
0.9157124479
0.9118174678
0.8785751437
0.8382923415
0.7998619448
0.9112981782
0.9200140322
0.8393151842
0.8744993847
0.9004864550
0.8497912693
0.9083403126
0.8839604939
0.8986412566
0.8653480211
0.8929156323
0.9176147580
0.8634931604
0.8823637774
0.8951229006
0.8465557728
0.8726919619
0.8900656620
0.8498165702
0.9277718300
0.8698609239
0.9135434769
0.8629164820
0.9228886213
0.8956392686
0.8937858606
0.8528284255
0.8887960068
0.8653520864
0.9241531394
0.8528179599
0.8145484293
0.8788079560
0.9162472200
0.8763125239
0.8917608205
0.8999240959
0.8496908636
0.8956738143
0.9234316150
0.8959850422
0.8836926596
0.8611617810
0.9086840783
0.8910695623
0.8333645529
0.8747058588
0.8713497801
0.8356680102
0.8961715073
0.9164305145
0.8824519001
0.8649582608
0.8992449409
0.8978501085
0.8985814276
0.8618214352
0.8601931099
0.9043798260
0.8788777166
0.9026422980
0.8601927558
0.8795511252
0.8821630406
0.9256149601
0.8493695165
0.8885241157
0.8717546678
0.8707355006
0.9246240428
0.8536031412
0.8835902777
0.9052118702
0.8393077328
0.8705493854
0.8961704351
0.8797262731
0.8568691222
0.9262316250
0.8686645717
0.9181626267
0.8553387402
0.9256255923
0.8959750005
0.8867920966
0.8726087232
0.9270749476
0.8495386850
0.8579216178
0.8859542040
0.9124228050
0.8912637067
0.8874059118
0.8970986837
0.9225378052
0.8935414906
0.8772363736
0.9165036453
0.8883030528
0.8719649941
0.8740532120
0.9043530122
0.9052146064
0.9108680880
0.8731361372
0.9051977354
0.8908810241
0.9022130605
0.8846493379
0.8971390078
0.8706710477
0.8974505428
0.8781050819
0.9212687346
0.8577473721
0.8811414012
0.8704815515
0.8668497034
0.8785645163