<VTKFile type="UnstructuredGrid" version="0.1">
	<UnstructuredGrid>
		<Piece NumberOfPoints="1862" NumberOfCells="3498">
			<CellData>
				<DataArray type="Int32" Name="type" NumberOfComponents="1" Format="ascii">
0
0
0
0
0
0
0
0
0
0
0
0
0
0
0
0
1
0
0
1
0
0
0
0
0
0
0
0
0
0
0
0
0
1
0
0
0
0
0
0
0
0
0
0
0
0
0
0
0
0
1
0
0
0
0
0
0
0
0
0
0
1
0
0
0
0
0
0
0
0
0
0
0
0
0
0
0
0
0
0
0
0
0
0
0
0
0
0
0
0
0
0
0
0
0
0
0
0
0
0
0
0
0
0
0
0
0
0
0
0
0
0
0
0
0
0
0
0
0
0
0
0
0
1
0
0
0
0
0
0
0
0
0
0
0
0
0
0
0
0
0
0
0
0
0
0
0
0
0
0
0
1
0
1
1
0
0
0
0
0
0
0
0
0
0
0
0
0
1
0
1
0
0
0
0
1
0
0
0
0
0
0
0
0
1
1
0
0
0
0
0
1
0
0
0
0
0
0
0
0
1
0
0
0
0
0
0
0
0
0
0
0
0
0
0
0
0
0
0
0
0
0
0
0
0
0
0
0
0
0
0
0
0
1
0
0
0
0
0
0
0
0
0
0
0
0
0
0
0
0
0
0
0
0
0
0
0
0
0
0
0
0
0
0
0
0
0
0
0
0
0
0
0
0
0
0
0
0
0
0
0
1
0
0
0
0
0
0
0
0
0
0
0
0
0
0
0
0
0
0
0
0
0
0
0
0
0
0
0
0
0
0
0
0
0
0
0
0
0
0
0
0
0
0
0
0
0
0
0
0
0
0
1
0
0
0
0
0
0
0
0
0
0
0
0
0
0
0
0
0
0
0
0
0
0
0
0
0
0
0
0
0
0
0
0
0
0
0
0
0
0
0
0
0
0
0
0
0
0
0
0
0
0
0
0
0
0
0
0
0
1
0
0
0
0
0
0
0
0
0
0
0
0
0
0
0
0
0
0
0
0
0
0
0
0
0
0
0
0
0
0
0
0
0
0
0
0
0
0
0
0
0
0
0
0
0
0
0
0
0
0
0
0
0
0
0
0
0
0
0
0
0
0
0
0
0
0
0
0
0
0
0
0
0
0
0
0
0
0
0
0
0
0
0
0
0
0
0
0
0
0
0
0
0
0
0
0
0
0
0
0
0
0
0
0
0
0
0
0
0
0
0
0
0
0
0
0
0
0
0
0
0
0
0
0
0
0
0
0
0
0
0
0
1
0
0
0
0
0
0
0
0
0
0
0
0
0
0
0
0
0
0
0
1
0
0
0
0
0
0
0
0
0
0
0
0
0
0
0
0
0
0
0
0
0
0
0
0
0
0
0
0
0
0
0
0
0
0
0
0
0
0
0
0
0
0
0
0
0
0
0
0
0
0
0
0
0
1
0
0
0
0
0
0
0
0
0
0
0
0
0
0
0
0
0
0
0
0
0
0
0
1
0
0
0
0
0
0
0
0
0
0
0
0
0
0
0
0
0
0
0
1
0
0
0
1
0
0
0
0
0
0
0
0
0
0
0
0
0
0
0
0
0
0
0
0
0
0
0
0
0
1
0
0
0
0
0
0
0
1
0
0
0
0
0
0
0
0
0
0
0
0
0
0
0
0
0
0
0
0
0
0
0
0
0
0
1
0
0
0
0
0
0
0
1
0
0
0
0
0
0
1
0
0
0
0
0
0
0
0
0
0
0
0
0
0
0
0
0
0
0
0
0
0
0
0
0
0
0
0
0
0
0
0
0
0
0
0
0
0
1
0
0
0
0
0
1
0
0
0
0
0
0
0
1
0
0
0
0
0
0
0
0
0
0
0
0
0
1
0
0
0
0
0
0
0
0
0
0
0
0
0
0
0
0
0
0
0
0
0
0
0
0
0
0
0
0
0
0
0
0
0
0
0
0
0
0
0
0
0
0
0
0
0
0
0
0
0
0
0
0
0
1
0
0
0
0
0
0
0
0
0
0
0
0
0
0
0
0
0
0
0
1
0
0
0
0
0
0
0
0
0
1
0
0
0
0
0
0
0
0
0
0
0
0
0
0
0
0
0
0
0
0
0
0
0
0
0
0
0
0
0
1
0
1
0
0
0
0
0
0
0
0
0
0
0
0
0
0
0
0
0
0
0
0
0
0
0
0
0
0
0
1
0
0
0
1
0
0
0
0
0
0
0
0
0
0
0
0
0
0
0
0
0
0
0
0
0
0
0
0
0
0
0
0
1
0
0
0
0
0
0
0
0
0
0
0
0
0
0
0
0
0
0
0
0
0
0
0
0
0
1
0
0
0
0
0
0
0
0
0
0
0
0
0
0
0
0
0
0
0
0
0
0
0
1
0
0
0
0
0
0
1
0
0
0
0
0
0
0
0
0
0
0
1
0
0
0
0
0
0
0
0
0
0
0
0
0
0
0
0
0
0
0
0
1
0
0
0
0
0
0
0
0
0
0
0
1
0
0
0
0
0
0
0
0
0
0
0
0
0
0
0
0
0
0
0
0
0
1
0
0
0
0
0
0
0
0
0
1
1
0
1
0
1
0
0
0
0
0
0
0
0
0
0
0
1
0
0
0
0
0
1
1
0
0
0
0
0
0
1
0
0
0
0
0
1
1
1
0
0
0
0
0
0
0
0
0
0
0
0
1
1
0
0
1
0
0
0
0
0
1
0
0
0
1
0
1
0
0
0
0
0
0
0
1
0
0
0
0
0
0
0
1
0
0
1
0
0
0
0
0
0
0
0
0
0
0
0
0
0
0
1
0
0
0
0
0
0
0
0
0
0
0
0
0
0
0
0
0
0
0
0
0
0
0
0
0
0
0
0
0
0
0
0
0
0
0
0
1
0
0
0
0
0
0
1
0
0
0
1
0
0
0
0
0
0
0
0
0
0
0
1
0
0
0
0
0
0
0
0
0
0
0
0
0
0
0
0
0
0
0
0
0
0
0
0
0
0
0
0
0
0
0
0
0
0
0
0
0
0
0
0
1
1
0
0
0
0
0
0
0
0
0
0
0
0
0
1
0
0
0
0
0
0
0
0
0
0
0
0
0
0
0
0
0
0
0
0
0
0
0
0
0
0
0
0
0
0
0
0
0
0
0
0
0
0
0
0
0
0
0
0
0
0
0
0
0
0
0
0
0
0
0
0
0
0
0
0
0
0
0
0
0
0
0
0
0
0
0
0
1
1
0
0
0
0
0
0
0
0
1
0
0
0
0
0
0
0
0
0
0
0
0
0
0
0
0
0
0
0
0
0
0
0
1
0
0
0
0
0
0
0
0
0
0
0
0
0
0
0
0
1
0
0
0
0
0
0
0
0
0
0
0
0
0
0
0
0
0
0
0
0
0
0
0
0
0
0
0
0
0
0
0
0
0
0
0
0
0
0
0
0
0
0
0
0
0
0
0
0
0
0
0
0
0
0
0
0
0
0
0
0
0
0
0
0
0
0
0
0
0
0
0
0
0
0
0
0
0
0
0
0
0
0
0
0
0
0
0
0
0
0
1
1
0
0
0
0
0
1
0
0
0
0
0
0
0
0
0
0
0
0
1
0
0
0
0
0
0
0
0
0
0
0
0
0
0
0
0
0
0
0
0
0
0
0
0
0
0
0
0
0
0
0
0
0
0
0
0
0
0
0
0
0
0
0
0
0
0
0
0
0
0
0
0
0
1
0
1
0
0
0
0
0
0
0
0
0
0
0
0
0
0
0
0
0
0
1
0
0
0
0
0
0
0
0
0
0
0
0
0
0
0
0
0
0
0
0
0
0
0
0
0
0
0
0
0
0
0
0
0
0
0
0
0
0
0
0
0
0
0
0
0
0
0
0
0
0
0
0
0
0
0
0
0
0
0
0
0
0
0
0
0
0
0
0
0
0
1
0
0
0
0
0
0
0
0
0
0
1
0
0
0
0
0
0
0
0
0
0
0
0
0
0
0
0
0
0
0
0
0
0
0
0
0
0
0
0
0
0
0
0
0
0
0
0
0
1
0
0
0
0
0
0
0
0
0
0
0
0
0
0
0
0
0
0
0
0
0
0
0
0
0
0
0
0
0
0
0
0
0
0
0
0
0
0
0
0
0
0
0
0
0
0
0
0
0
0
0
0
0
0
0
0
0
0
0
0
0
0
0
0
0
0
0
0
0
0
0
0
0
0
0
0
0
0
0
0
0
1
0
0
0
0
0
0
0
0
0
0
0
0
0
0
0
0
0
0
0
0
0
0
0
0
0
0
0
0
0
0
0
0
0
0
0
0
0
0
0
0
0
0
0
0
0
0
0
0
0
0
0
0
0
0
0
0
0
0
0
0
0
0
0
0
0
0
0
0
0
0
0
0
0
0
0
0
0
0
0
0
0
0
0
0
0
0
0
0
0
0
0
0
0
0
0
0
0
0
0
0
0
0
0
0
0
0
0
0
0
0
0
0
0
0
0
0
0
0
0
0
0
0
0
1
0
0
0
0
0
0
0
0
0
0
0
0
0
0
0
0
0
0
0
0
0
0
0
0
0
0
0
0
0
0
0
0
0
0
0
0
0
0
0
0
0
0
0
0
0
0
0
0
0
0
0
0
0
0
0
0
0
0
0
0
0
0
0
0
0
0
0
0
0
0
0
0
0
0
0
0
0
0
0
0
0
1
0
0
0
0
0
0
0
1
0
0
0
0
0
0
0
0
0
0
0
0
0
0
0
0
0
0
0
0
0
0
0
0
0
0
0
0
0
0
0
0
0
0
0
0
0
1
0
0
0
0
0
0
0
0
0
0
0
0
0
0
0
0
0
0
0
0
0
1
0
0
0
0
0
0
0
0
0
0
0
0
1
1
0
0
0
0
0
0
0
0
0
0
0
0
0
0
0
1
1
0
1
0
0
0
0
0
0
0
0
0
1
0
0
0
0
0
0
1
0
0
0
0
0
0
0
0
0
0
1
0
0
0
0
1
0
1
0
0
0
0
0
0
0
1
0
0
0
1
0
0
0
1
0
1
1
0
0
1
1
0
0
0
1
0
0
0
1
0
0
0
0
0
0
0
0
0
1
0
0
0
0
0
0
1
0
0
0
0
0
0
0
0
0
0
0
0
0
0
0
0
0
0
0
0
0
0
0
0
0
0
0
1
0
0
1
0
0
0
0
0
0
0
0
0
0
0
0
0
0
0
0
0
0
1
0
0
1
0
0
0
0
0
0
0
0
0
0
0
1
0
0
1
0
0
0
0
0
0
0
0
0
0
0
1
1
0
0
0
0
0
0
0
0
0
0
0
0
1
0
0
0
0
0
0
0
0
0
0
0
0
0
0
0
0
0
1
0
0
0
0
0
0
0
0
0
0
0
0
0
0
0
0
0
1
0
0
0
0
0
0
0
0
0
0
0
0
0
0
0
0
0
0
0
0
0
0
0
0
0
0
0
0
0
0
0
0
0
0
0
0
0
0
0
0
1
0
0
0
0
0
0
0
0
0
0
0
0
0
0
0
0
0
0
0
0
0
0
0
0
0
0
0
0
0
0
0
0
0
0
0
0
0
0
0
0
0
0
0
0
0
1
0
0
0
0
0
0
0
0
0
0
0
0
0
0
0
0
0
0
0
0
0
0
0
0
0
0
0
0
0
0
0
0
0
0
0
0
0
0
0
0
0
0
0
0
0
0
0
1
0
0
0
0
0
0
0
0
0
0
1
0
0
0
0
0
0
0
0
0
0
0
0
0
0
0
1
0
0
1
0
0
0
0
0
0
0
0
0
0
0
0
0
0
0
0
0
0
0
0
0
0
0
1
0
0
0
0
0
0
0
0
0
0
0
0
0
0
0
0
0
0
0
0
0
0
0
0
0
0
0
0
0
0
0
0
0
0
0
1
0
0
0
0
0
0
0
0
0
0
0
0
0
0
0
0
0
0
0
0
0
0
0
0
0
0
0
0
0
0
0
0
0
0
0
0
0
0
0
0
0
0
0
0
0
0
0
0
0
0
0
0
0
0
0
0
0
0
0
0
0
0
0
0
0
0
0
0
0
0
0
0
0
0
0
0
1
0
0
0
0
0
0
0
0
0
0
0
0
0
0
0
0
0
0
0
0
0
0
0
0
0
0
0
0
0
0
0
0
0
0
0
0
0
0
0
1
0
0
0
0
0
0
0
0
0
0
0
0
1
1
0
0
0
0
0
0
0
0
0
0
0
0
0
0
0
0
0
0
0
0
0
0
0
0
0
0
0
0
0
0
0
0
0
0
0
0
0
0
0
0
0
0
0
0
0
0
0
0
0
0
0
0
0
0
0
0
0
0
0
0
0
0
0
0
0
0
0
0
0
0
0
0
0
0
0
0
0
0
0
0
0
0
0
0
0
0
0
0
0
0
0
0
0
0
0
0
0
0
0
0
0
1
0
1
0
0
0
0
0
0
0
1
1
1
1
0
0
0
0
0
0
0
0
0
0
0
0
0
0
0
0
0
0
0
0
0
0
0
0
0
0
0
0
1
1
0
0
0
0
0
0
0
0
0
0
0
0
0
0
0
0
0
0
1
0
0
0
0
0
0
0
1
1
0
1
1
0
0
1
0
0
0
0
0
0
0
1
0
1
0
0
0
0
0
0
0
0
0
0
0
0
0
0
0
0
0
0
0
0
0
0
0
0
0
0
0
1
1
0
0
0
1
1
0
0
0
0
1
0
0
1
0
1
0
0
0
0
0
1
0
0
0
1
0
0
0
0
0
0
0
0
0
0
0
0
0
0
0
0
0
0
0
0
0
0
0
0
0
0
0
1
0
0
0
0
0
0
1
0
0
0
0
0
0
0
0
0
0
0
0
0
0
0
0
0
0
0
0
0
0
0
0
0
0
0
0
0
1
0
1
0
0
0
0
0
0
0
1
0
0
0
0
0
0
0
0
0
0
0
1
0
0
0
0
0
0
0
0
0
1
0
0
0
0
0
0
0
1
0
0
0
0
0
0
0
1
0
0
0
0
0
0
0
0
0
0
0
0
0
0
0
0
0
0
0
1
0
1
0
0
0
0
0
1
0
0
0
0
0
0
0
0
0
0
0
0
0
0
0
0
0
0
0
0
0
0
0
0
0
1
0
1
0
0
0
0
0
0
0
0
0
1
0
0
0
0
0
1
0
0
0
0
0
0
0
0
0
0
0
0
0
0
0
1
0
0
0
0
0
0
0
0
1
0
0
0
0
0
0
0
0
0
0
0
0
0
0
0
0
0
0
0
0
0
0
0
0
0
0
0
0
0
0
1
0
0
0
0
0
0
0
0
0
0
0
0
0
0
0
0
1
0
0
0
0
0
0
0
0
1
0
0
0
0
0
0
0
0
0
1
0
0
0
0
0
1
0
0
0
0
0
0
0
0
0
0
0
0
0
0
0
0
0
0
0
1
0
0
0
0
0
0
1
0
0
0
0
0
0
0
0
1
0
0
0
0
0
0
0
0
0
0
0
0
0
0
1
0
0
1
0
0
0
1
0
0
0
0
0
0
0
0
0
0
0
0
0
0
0
0
1
0
0
0
0
0
0
0
0
0
0
1
0
1
0
0
0
0
0
0
1
0
0
0
0
0
0
0
0
0
0
0
0
0
0
0
0
0
0
0
0
0
0
0
0
0
0
0
1
1
0
0
0
0
0
0
1
0
0
0
0
0
0
0
0
0
0
0
0
0
1
0
0
0
0
0
0
0
1
0
0
0
0
0
0
0
0
0
0
0
0
0
0
0
0
0
0
0
0
0
0
0
0
0
0
0
1
0
0
0
0
0
0
0
0
0
0
1
0
0
1
0
0
0
0
0
0
0
0
0
0
0
0
0
0
0
0
0
0
0
0
0
0
0
0
0
0
0
0
0
1
0
0
0
0
0
0
0
1
0
0
0
0
0
0
0
1
0
0
0
0
1
0
0
0
0
0
0
0
0
0
0
0
1
0
1
0
0
0
1
0
				</DataArray>
				<DataArray type="Float64" Name="h" NumberOfComponents="1" Format="ascii">
0.8173718350
0.8173623129
0.8260458878
0.8155579529
0.8289265954
0.8263207665
0.8209435121
0.8124435407
0.8201012327
0.8062222813
0.8127754657
0.8221458034
0.8096919590
0.8096739714
0.8120932895
0.8017651647
0.8174499310
0.8061365557
0.8126572289
0.8106437154
0.8299978658
0.8087129417
0.8172313490
0.8345987797
0.8139201553
0.8025607089
0.8060344042
0.8260533050
0.8258148735
0.8067325961
0.8078085139
0.8221521227
0.8046568581
0.8261625136
0.8572819256
0.8351997945
0.8408685810
0.8128714907
0.8165060939
0.8349910891
0.8301133139
0.8398593002
0.8114598570
0.8219440456
0.8389337839
0.8262926541
0.8190924053
0.8644689901
0.9300201480
0.9069717640
0.8366058299
0.8325210580
0.8280274487
0.8662274667
0.8446411787
0.8054380406
0.8338979254
0.8825371335
0.8890667778
0.8734231675
0.9131089258
0.9035501228
0.9305708768
0.8385984262
0.8218895897
0.8295903694
0.8806533647
0.9073902028
0.9018522507
0.8906113848
0.8904312433
0.8512797897
0.8058240401
0.8784516868
0.8856699749
0.7931716265
0.8836857091
0.9081811764
0.8740414270
0.8066096192
0.9315615679
0.8361851575
0.9651293908
0.8809049932
0.7990033543
0.8037468751
0.9387662573
0.8516498096
0.9088589431
0.9538600783
0.9396825584
0.8022696502
0.9199228869
0.9354553389
0.8203368701
0.8153199555
0.8230119305
0.8049907927
0.8157758307
0.9375507362
0.9575600815
0.9309962663
0.8423657663
0.8711821783
0.8009717221
0.8538932366
0.8007016146
0.9426737256
0.9062746150
0.8329294312
0.9209332181
0.9424261828
0.9274343742
0.9360713852
0.8671929323
0.9630039774
0.8545450822
0.8038771498
0.9513017131
0.8926549908
0.8013487029
0.8377147771
0.7867848690
0.7987135713
0.9232828249
0.9477653848
0.8784100345
0.7978178103
0.9619457951
0.9616773501
0.9542211568
0.8149737733
0.9021047881
0.9666655996
0.8020808556
0.9516444973
0.7985289296
0.9673996006
0.9472881294
0.7995708622
0.7977250266
0.7998673325
0.9586611588
0.8005738833
0.7978977153
0.9500975041
0.7985436219
0.9695679212
0.7991428198
0.9706687208
0.7971315317
0.9699360235
0.9686068843
0.9698773096
0.9423134377
0.9677289473
0.9719655586
0.7986853541
0.9699857054
0.7957928313
0.8000737641
0.9698178753
0.7974443199
0.7960987887
0.7984568885
0.9659797304
0.8000367431
0.7996195852
0.7973050669
0.9671177770
0.9725358145
0.7964569521
0.9702368772
0.7985923645
0.7980875173
0.9720958015
0.7999236470
0.9719671916
0.9727323091
0.7964123732
0.9664522238
0.7939359070
0.7953056426
0.7797741230
0.7945299034
0.7977737600
0.7975848065
0.9710083019
0.7976117201
0.7991604891
0.7879409844
0.9725995301
0.7958736559
0.7928695286
0.9722964475
0.9703609852
0.7964760371
0.7804881326
0.7864905612
0.9720070335
0.7985968007
0.7810614500
0.7981559169
0.9711809706
0.7719287406
0.7944411963
0.7971913580
0.7960155673
0.7785695928
0.7958805255
0.7827124086
0.7969874035
0.7958439828
0.7961372980
0.7965843271
0.7747616537
0.7967202051
0.7954318691
0.7889987196
0.7948741319
0.7703994081
0.9346032631
0.7934254384
0.8774182531
0.7735370885
0.9743889916
0.9666549888
0.8166941655
0.7634371341
0.9542712978
0.9720181292
0.9081568070
0.7915374742
0.9730459946
0.9740678333
0.8451534022
0.7774697244
0.7947567787
0.7964418459
0.7909689181
0.7742885957
0.7947525486
0.7949952531
0.7941734304
0.7957212463
0.7968286573
0.7953801262
0.7848674192
0.7949947315
0.7945580808
0.7932263910
0.7814426532
0.7953325277
0.7688105039
0.7659203095
0.7959989521
0.7960565912
0.7964998787
0.7961598075
0.8945380484
0.7870817878
0.7572094937
0.7922888124
0.8558532971
0.7771574076
0.9744509412
0.9770802127
0.7573731207
0.9737389330
0.9228038912
0.9650523417
0.7904807681
0.9482988029
0.8279255834
0.8601688371
0.7518541744
0.7704201194
0.8214524102
0.8909450295
0.7633791326
0.9638853219
0.9752383029
0.9748559330
0.9773253539
0.9479953739
0.9246613850
0.7994000292
0.7922030668
0.7947598420
0.7943941014
0.7936601920
0.7691053055
0.7935866475
0.7944838056
0.7869920773
0.7687528694
0.7885743334
0.7932109308
0.7938574605
0.7960206720
0.7955006891
0.7943960215
0.7772588466
0.7608547925
0.7605228965
0.7901857691
0.7761153024
0.7917897816
0.7943181080
0.7477989380
0.8029657157
0.7728866255
0.9758686396
0.7501279073
0.9603683776
0.8740371777
0.7822905812
0.9388623112
0.9796990230
0.7836890909
0.8324568406
0.7595046529
0.9063941259
0.9767742425
0.7557222887
0.7768836089
0.7990216567
0.9770454975
0.8362254345
0.9093413789
0.9600481097
0.9796263557
0.9775362496
0.7473789910
0.8699899402
0.7513588513
0.9374207003
0.7906659053
0.9855650644
0.7841888729
0.7669218418
0.7840570706
0.7939497465
0.7643915442
0.7925423947
0.7902084573
0.7930030653
0.7938292078
0.9524203153
0.7768000119
0.7607886233
0.8192378401
0.7922280024
0.7935286560
0.9798179298
0.7877478929
0.7995564026
0.7734441530
0.7880066942
0.8621577044
0.8841092924
0.9846177619
0.7955237179
0.7719066299
0.7571644957
0.7917187234
0.7870955445
0.7929044884
0.7836421276
0.7948723155
0.8135799036
0.9197272199
0.7932831059
0.9826307138
0.8509556137
0.8124829132
0.9778949476
0.7941697936
0.9520572635
0.7473417495
0.7497509815
0.9250623688
0.9778528323
0.7793599151
0.8875277264
0.7786363830
0.7500334319
0.7822875431
0.7614895327
0.8010467099
0.9794817330
0.7506329705
0.8129899314
0.8170213430
0.9803541223
0.8486567804
0.7941094235
0.7985793080
0.7998369632
0.8064309840
0.7503681506
0.9523823761
0.8036003784
0.8898014333
0.8110539034
0.9792229703
0.9235467548
0.7467203049
0.7615532121
0.8016088178
0.7821105695
0.7801963773
0.8535795261
0.7973209990
0.7886612056
0.9732504696
0.9291728767
0.7815256300
0.8498389190
0.7593889001
0.8041257866
0.7966352343
0.7917861428
0.9210355693
0.9853719499
0.7908648662
0.9808761021
0.7932333094
0.8871827461
0.7640074043
0.7774267128
0.9945098982
0.8312407033
0.9517117877
0.8047731095
0.7964703635
0.9411464558
0.8926324619
0.9748232152
0.8207934692
0.8184445137
0.8691835622
0.7906106432
0.8939064436
0.8298915868
0.7856947758
0.7617272921
0.8471637611
0.8178023474
0.8981471212
0.8526591340
0.9798728953
0.7948868383
0.7625424920
0.7702435385
0.7966537795
1.0006056629
0.9558195052
0.8316343894
0.9925033296
0.7928719362
0.7594090340
0.7881722603
0.9793998218
0.7762448952
0.8304600100
0.7707543599
0.7497729261
0.8177722618
0.7912931359
0.9770476155
0.7815931052
0.9081508549
0.7726473111
0.7565775418
0.7709296296
1.0092866672
0.8090150915
0.7926022683
0.7935139889
0.7950303195
0.7677683778
0.7901098261
0.9803917678
0.9802214510
0.9800880912
0.9412243632
0.7967408345
0.7956573851
0.8046743331
0.8473872083
0.7507734143
1.0211349325
0.7923834164
0.7941092661
0.8006226176
0.7853126313
1.0110344364
0.8692734834
0.7980575243
0.9343568691
0.9392181474
0.8075313155
0.7998495214
0.8064460572
0.7770350670
0.7555258441
0.7941509146
0.7708310499
0.8746073765
0.7967280744
0.7690798368
0.8970003552
0.7816093621
0.8332097467
0.7926185204
0.8806015909
0.8168225739
0.7930920945
0.7855595930
0.7691056016
0.8244296871
0.8357922248
0.9866219424
0.7903270822
0.9164673697
0.8012869794
0.8590963724
0.8276954094
0.7766991162
0.8724882832
0.7881896410
0.8405307395
0.7923069280
0.7913033079
0.8338665676
0.7924087204
0.7853298818
0.7941484882
0.8277031332
0.7677977802
0.8298582401
0.8156258675
0.7933453919
0.8225569703
0.7882995321
0.7957104018
0.7726673806
0.8257370435
0.8120528244
1.0026434263
0.8195226017
0.7916136210
0.8418544527
0.7928448043
0.8435671812
0.7763802510
0.8077516736
0.9276811675
0.9799907559
0.7790713373
0.8022748266
0.9558469935
0.7901257492
0.8381644542
0.8927461555
0.7770518308
0.7707627240
0.9001520572
0.9799305319
0.7822923682
0.8643609009
0.9228416324
0.8829999447
0.7594063507
0.7932828702
0.7696232122
0.8397386370
0.8969976445
0.7878815165
0.7922212787
0.8179037470
0.9343572218
0.8042487269
0.8529951639
0.7939252471
0.9748501976
0.8537231264
0.7617349254
0.8211122136
0.9809263403
0.8407781825
0.8061104934
0.8443555342
0.8263595898
0.7625673936
0.7880594286
0.7930015933
1.0201141599
0.8108185373
0.8216375331
0.7889571678
0.9964169381
0.7933454705
0.7909061346
0.8301091638
0.8411479262
0.9778798973
0.9292600978
0.8008968579
0.8375032109
0.7936955483
0.9602873415
0.8149145682
0.8397401976
0.7938845991
0.9089469410
0.7923156986
0.7823081866
0.7767196583
0.7903434222
1.0011596306
0.8438855449
0.7934303207
0.7931034050
0.7906244496
0.8128029952
1.0170099830
0.7928735882
0.8296957001
0.8411521009
0.8191170193
0.8343158640
0.7764023596
0.7855747789
0.7790891741
0.7916289651
0.9849904405
1.0287765632
0.9535052070
0.8779167661
0.7933456297
0.8402295602
0.8434362694
0.7911115459
1.0216871945
0.9441980942
0.8418576886
0.8340439786
0.9952260057
0.8129350798
0.7929117050
0.7925331791
0.7942571709
0.8098771415
0.7908899394
0.7941689263
0.7883153267
0.9667801004
0.7939061539
0.7931546115
0.7938101089
0.9347549574
1.0019802841
1.0366420835
0.9464227542
0.8051654502
0.7917144445
0.7931715492
0.7943766971
1.0303611123
1.0417358834
0.8338718295
0.8379999858
0.8388879381
0.8245294303
0.9944952393
0.8233784411
0.8285147272
1.0643901315
1.0566726171
0.8200995162
0.8269407538
1.0121801154
0.8305455926
0.8330518691
0.8182335299
1.0393239188
1.0593675901
1.0545672336
0.8265320679
0.8219361297
0.8136104901
0.8180199265
0.8235521831
1.0319706020
1.0546948226
0.9700388292
1.0030778010
0.8080080638
1.0696416280
1.0761106568
0.8113701919
1.0287710345
1.0026348371
0.8009069599
1.0791460711
0.8195325359
1.0508859583
0.8110151020
0.8155595692
1.0790802484
0.8149247966
1.0715545322
1.0532854789
0.8022890672
1.0405634509
0.8014622416
0.7994931247
1.0256906360
1.0316177594
0.7953049226
0.8187513187
0.8215362673
0.8215270184
0.8187259941
0.8196243513
0.8221323994
0.8127628990
0.8153310896
0.8269887757
0.8263276451
0.8289163072
0.8269612727
0.8200947621
0.8120890771
0.8209388272
0.8084337669
0.8153414058
0.8196331938
0.8108949558
0.8061197820
0.8155758941
0.8260514565
0.8126764572
0.8067145190
0.8047676631
0.8213826048
0.8124530517
0.8025411426
0.8138972327
0.8062420499
0.8086455643
0.8096967384
0.8312970615
0.8033775398
0.8151259326
0.8084504169
0.8077868972
0.8109054512
0.8261426502
0.8046432848
0.8221919134
0.8050307779
0.8349892766
0.8133809996
0.8174770827
0.8017875923
0.8114811127
0.8165568940
0.8213997152
0.8047857950
0.8301479898
0.8096919628
0.8106709862
0.8313050504
0.8171812784
0.8656351316
0.8087099824
0.8427483939
0.8086505184
0.8300093072
0.8151027391
0.8107331414
0.8315272990
0.8644595974
0.8033974883
0.8389460560
0.8365906368
0.8191477028
0.8259687439
0.8345911513
0.8257546331
0.8339602058
0.8116815227
0.8060430826
0.8474761665
0.8050447794
0.8133478043
0.8471188435
0.8555039589
0.8050449772
0.8280887059
0.8656404154
0.9220453899
0.9164104966
0.8107153037
0.8427543620
0.8463771560
0.8314480132
0.8351712230
0.8219666225
0.8128346585
0.8590356441
0.8572921915
0.9305159477
0.9073629150
0.8400678901
0.8408782795
0.8386369665
0.8470855884
0.8761249281
0.8769031293
0.8218624275
0.8784545792
0.8660695700
0.8512930417
0.8058162600
0.8935987204
0.8035710463
0.8131463256
0.8474786492
0.9115735198
0.8555154028
0.8398120914
0.8836727516
0.8904224525
0.8870154218
0.8856632559
0.8116490855
0.8126730541
0.9018409303
0.8496556656
0.8050652188
0.8906012238
0.8463697123
0.8590336679
0.8190080138
0.8400086764
0.8924770973
0.8620619536
0.8959839472
0.9300216724
0.8324622335
0.9164455558
0.8262129813
0.8362410432
0.8808943429
0.8477077919
0.9220613828
0.9069860531
0.9131143738
0.9035531455
0.8126399942
0.9215586373
0.8870164128
0.8890769850
0.8722129624
0.8660583491
0.7936073155
0.8037953021
0.8761359186
0.8496697277
0.8550941368
0.8446130130
0.9015968309
0.8936090676
0.9115802060
0.8054502922
0.8466486138
0.8908645418
0.8035820298
0.8662024587
0.8769094466
0.8734214197
0.8022469932
0.8825504946
0.8131019357
0.9199179089
0.8924694915
0.8711702016
0.8158153405
0.8476736871
0.7989513649
0.8620535437
0.9309974432
0.8686279605
0.9288411231
0.8660711131
0.8295262260
0.9576119241
0.8806672325
0.8647507004
0.8049870163
0.9242790423
0.8152258633
0.8560505522
0.8960348897
0.9375549722
0.8538440837
0.8188543366
0.9666237822
0.8466039721
0.9062587548
0.9424419913
0.9215655009
0.8908725349
0.9274232656
0.8550775143
0.7932317663
0.9104148672
0.8722153853
0.9081921192
0.8038102871
0.9413768523
0.7936569081
0.9209048060
0.8329913796
0.9016081682
0.9288497905
0.9665568646
0.8563351280
0.9242755481
0.8037793185
0.8377554116
0.9009461880
0.8647619972
0.8033969928
0.8560317393
0.8660337793
0.7990408234
0.8066271185
0.9387637412
0.9650502411
0.9315581542
0.8546084132
0.8740531879
0.8687134843
0.8013273633
0.8516707912
0.7989842199
0.9413710201
0.8149720603
0.8945854799
0.8003071972
0.9477429823
0.9219675531
0.9394014632
0.9088724937
0.8203282090
0.9354642124
0.9592846534
0.9538091395
0.9396809750
0.9479943075
0.8825119959
0.9232548968
0.8784181902
0.9105200842
0.9617216721
0.8423191205
0.9597256357
0.8803006196
0.8562843839
0.8034167738
0.9009646844
0.9357892120
0.8020611860
0.9516807892
0.9020842089
0.8009931968
0.8230572305
0.7978561864
0.8664906847
0.7998457485
0.9163060213
0.8003291359
0.9592303919
0.9361064021
0.9426689306
0.7991050451
0.8825195187
0.9393904969
0.8671557056
0.7991178380
0.8946729050
0.9586922129
0.7979744484
0.9629642253
0.9219844409
0.9501165617
0.9479346657
0.8007564019
0.8006774794
0.7869077176
0.8516412268
0.9702254469
0.9596786778
0.9358561694
0.7975147426
0.9652649826
0.9570080422
0.9476770828
0.8926643235
0.8805165897
0.9699616622
0.8038945261
0.9525790188
0.9512163326
0.8046394586
0.7971075877
0.9686378891
0.9423253874
0.7991341017
0.7979998034
0.7996007023
0.7984219064
0.9163451691
0.9692060552
0.8006984613
0.7970771039
0.9701796786
0.8407945048
0.8666406162
0.7987378769
0.9619199409
0.8000537209
0.7991874440
0.7868531922
0.9541944347
0.8030861336
0.7974212758
0.9583531861
0.9698528550
0.7978444827
0.9700140938
0.9476634573
0.7985585166
0.9666385696
0.9686127856
0.8260200196
0.9569702529
0.9662286492
0.9673650591
0.9702595084
0.8053793284
0.7990569620
0.9472764087
0.8046577383
0.8518887949
0.7975361525
0.9701979282
0.7869716010
0.9525634435
0.9671577864
0.9592110918
0.9652355945
0.9725594533
0.7985676222
0.9706398895
0.7952818502
0.8177878574
0.7992170936
0.7971005113
0.9654542766
0.9698223431
0.9708195154
0.8005922725
0.9695302283
0.7985639345
0.7963815983
0.9701453371
0.8031064591
0.8409398566
0.7957341855
0.7977549728
0.9665010790
0.9583299398
0.7999013584
0.9564845105
0.7995918406
0.9691735667
0.7963717269
0.7975914044
0.9676818983
0.9719406434
0.7990769943
0.7990497125
0.9685785224
0.8014246983
0.8054012033
0.8261701310
0.7945075778
0.9661868236
0.9698556255
0.7987116649
0.9591903333
0.7975559992
0.7941809589
0.9723179763
0.8000586567
0.7963890108
0.9653948636
0.9704195258
0.7957626503
0.9707937384
0.9564649863
0.9690486123
0.7962377377
0.9697918701
0.8178760900
0.7957380143
0.9726197966
0.9653348092
0.7961209828
0.9659240633
0.7928295294
0.9720138188
0.7958124538
0.7809772028
0.9715894425
0.7964778197
0.7981334659
0.7981176571
0.9712028412
0.7991523543
0.7973292275
0.7985746563
0.8014455484
0.7864386210
0.9713314782
0.9727113329
0.7974614850
0.7962574945
0.7957559083
0.7969647074
0.9719559905
0.9689988938
0.7954233812
0.9704371084
0.7939778454
0.9653103067
0.9720735598
0.7942598961
0.7972507016
0.7972823669
0.9719129484
0.7958232663
0.7785128475
0.7879900648
0.9720411268
0.9715692215
0.7991834302
0.9713114210
0.9709185829
0.9716501126
0.7798465744
0.7977959841
0.9709863880
0.7703492546
0.7953607394
0.7968125239
0.7967309559
0.7957043364
0.7805388812
0.7973051415
0.7658984012
0.7959261885
0.7941447414
0.7955392638
0.7974917033
0.7774304532
0.7958966942
0.7961979572
0.9703777002
0.7965000734
0.7956185518
0.7964836260
0.7953392963
0.7687778879
0.7960355032
0.7953143510
0.7848252468
0.7972749118
0.7964178338
0.7954469121
0.9726588918
0.7598002213
0.7719715735
0.9708944695
0.9245453011
0.7904426753
0.9716350015
0.8598047739
0.7633177053
0.9748695686
0.9639564643
0.9727840107
0.7992097948
0.7573319300
0.9483103439
0.9719928278
0.8942537599
0.7770498977
0.9737488869
0.9719844580
0.9744913546
0.8276297982
0.7827548720
0.7936451583
0.7945318549
0.7948959715
0.7885461116
0.7690781258
0.7955572161
0.7659342790
0.7967517340
0.7954524016
0.7573283278
0.7944726741
0.7947400921
0.7959496916
0.7959025605
0.7960355160
0.7972079431
0.7944604458
0.7890356198
0.7943838661
0.7943004477
0.7962211147
0.7917684939
0.7772280706
0.7954499747
0.7748044703
0.7604943225
0.7943002666
0.7954461056
0.7967391555
0.7953574372
0.7966038100
0.7956411133
0.9083046580
0.7836571927
0.7526027276
0.7513154999
0.7767408255
0.8358447404
0.7916900128
0.9719111013
0.9740299966
0.9770596458
0.7634941609
0.9730344668
0.9742700251
0.9090770950
0.9600829849
0.7934543986
0.9726255353
0.9542377981
0.8454309685
0.8776759196
0.7500924057
0.7594385647
0.8032095301
0.8736373788
0.7736335369
0.9665846250
0.9727224769
0.9758735772
0.7598338067
0.9743721523
0.9768176939
0.9387860409
0.9722599430
0.9346385556
0.8169150114
0.7906496505
0.7936772200
0.7950144726
0.7954733818
0.7939273253
0.7947705195
0.7743234854
0.7538233091
0.7929948887
0.7573633798
0.7947674271
0.7840336153
0.7643653647
0.7909904703
0.7945482813
0.7922159715
0.7935109140
0.7954674407
0.7951424720
0.7950084247
0.7814753834
0.7571303510
0.7933504916
0.7659531696
0.7943141296
0.7879856185
0.7718842772
0.7932433435
0.7945756468
0.7466857831
0.8222934035
0.7614845890
0.9752323692
0.7518901291
0.9523585864
0.8912528261
0.7786131594
0.9480123954
0.9721951362
0.9740070071
0.9792229946
0.7515990476
0.7871095367
0.8127007740
0.7705443654
0.8894680162
0.9772880243
0.7499978002
0.7925059570
0.7821254104
0.9770711483
0.7526354792
0.9699267735
0.8562224799
0.9229521621
0.9650015961
0.9779254542
0.9778421895
0.7497113553
0.8505827342
0.7572746031
0.9248909804
0.9742067966
0.9732000294
0.7774297227
0.7566630954
0.8497789623
0.7922165920
0.7936913302
0.9818531186
0.9602857446
0.7815066959
0.7910603730
0.7639790496
0.7870126371
0.8342031419
0.9209959481
0.9887097291
0.7944157776
0.7687819568
0.7538656313
0.7917779484
0.7886435481
0.7935970452
0.7801892476
0.7983897834
0.7964753536
0.7932153458
0.7995128402
0.8963465069
0.7929847723
0.9614131539
0.7699306151
0.7593707630
0.8269345803
0.7932223207
0.7938765173
0.9807738468
0.9747835058
0.7856751780
0.7930109817
0.7702239031
0.7902026575
0.8561011892
0.8986263615
0.9865695569
0.7951648215
0.7761416054
0.7608884244
0.7924867170
0.7905963634
0.7933597172
0.7786718332
0.7986292191
0.7824773131
0.7945977491
0.8130431917
0.9309279538
0.7928511300
0.7986832843
0.9803670292
0.7578652293
0.8703707875
0.8263056822
0.9711028241
0.7955195534
0.9795945495
0.7935148242
0.7958004078
0.7980799727
0.9411464732
0.8046615004
0.8170142780
0.7507387746
0.9698904876
0.7474118929
0.8000864237
0.9375160140
0.8073487830
0.9775413524
0.7762274215
0.8690056635
0.7823142935
0.7557853787
0.7992840890
0.8111453226
0.7555041426
0.8075212055
0.9793673266
0.7565383543
0.8328200918
0.8216268524
0.9770495478
0.8302216496
0.9739604389
0.7932732052
0.7938227848
0.8019904597
0.9646081241
0.8042597410
0.8137666270
0.7497492796
0.9603575238
0.7516435332
0.8108088681
0.9066570213
0.8177603784
0.9796975000
0.9079555072
0.7478335556
0.7730293185
0.8090056375
0.7708734972
0.7723540347
0.9177729790
0.8707657867
0.9660504280
0.8168107690
0.7910556250
0.8244364599
0.8528563813
0.7902239784
0.9786192108
0.8757007394
0.9420602250
0.9785793971
0.8316344504
0.7842078259
0.8612795531
0.7553726517
0.7984015528
0.7726490897
0.7879350917
0.8348029040
0.7925497528
0.9339151501
0.9887741141
0.8003610501
0.9276765938
0.8611859498
0.8724927718
0.9840838751
0.7938502434
0.7618305627
0.8963879847
0.7669479692
0.7871069068
0.8041116900
1.0026135643
0.9799516955
0.7726416809
0.8405436928
0.9919155694
0.8342244209
0.9603353789
0.9715436196
0.7929973356
0.7567065995
0.7994973578
0.8000152008
0.9852986932
0.7768062608
0.9448034051
0.9089823959
0.8871552540
0.9796106915
0.8168210236
0.7929054545
0.8141988192
0.8622427853
0.7917308635
0.9819103253
0.8953531017
0.9576850343
0.8310167576
0.7877658168
0.8841750818
0.7613244740
0.8070352020
0.8070171659
0.8438047477
0.7924928882
0.9524769565
0.9798778721
0.8325522700
0.9035449306
0.8510402275
0.9809239370
0.7946206720
0.7562476004
0.8047885550
0.8622051556
0.7734651636
0.7879514672
1.0011003931
0.9636175856
0.7836346245
0.8245728073
0.9913359193
0.8130317592
0.9309577471
0.9867013930
0.7933033562
0.7608234674
0.7929966012
0.8192720389
0.7894155594
0.9795011079
0.9602847488
0.9964018316
0.9646120204
0.7793792214
0.7950355572
0.8489740446
0.8042721154
0.8643613487
0.7760060957
0.7503916395
0.8110705921
1.0200995778
0.7925506659
0.7958010066
0.7919790818
0.9803422501
0.8093054504
0.7835371960
0.9952187537
0.9237084442
0.7996692902
0.9167705786
0.9592202278
0.7986944644
0.7985926530
0.8027094664
0.8027274054
0.7742545651
0.7506722611
0.7822427890
1.0114247466
0.8016201363
0.8216665631
0.7933612068
0.7941815966
0.7696014658
0.8586182419
0.7974863349
0.8016373504
0.7660379044
0.7953496587
0.9088911602
0.7910271654
0.9826459957
0.9778749604
0.9823098672
0.9520958587
0.7960035653
0.8127282904
0.8020038314
0.8499415860
0.7473708849
0.8216753311
1.0216690920
0.7928995199
0.7938213422
0.7920104271
0.9710896746
0.8060993660
0.7869571213
1.0104601373
0.8878164640
0.7974966341
0.9297117320
0.9375264973
0.8010578409
0.7980933524
0.8137774472
0.7987669695
0.7791910357
0.7579117947
0.7615404776
1.0108746138
0.8111551428
0.7939702406
0.7932902721
0.7971438317
0.7655148075
0.8798539937
0.7949388853
0.7996557364
0.7695185016
0.8909544271
0.8293288837
0.7925617125
0.7835540442
0.8316437008
0.7933705747
0.8756916953
0.8208059252
0.7655463612
0.8348437614
0.8131068415
0.8202506865
0.7922640592
0.8280916628
0.9845374620
0.7848599544
0.8181742601
0.7982116627
0.7695416293
0.8230376230
0.8181629208
0.7824716097
0.8348079870
0.8118631157
0.9338551493
0.9808393516
0.8332038687
0.7786854686
0.9845767556
0.8174475643
0.7897275110
0.9177758789
0.8986963486
0.8377795261
0.7980503245
0.7723430989
0.7926549247
0.8528483031
0.8135669586
0.8241560775
0.8451333642
0.9516745017
0.7793950101
0.8080678732
0.9856221613
0.9671511841
0.7986351437
0.8744910429
1.0004085308
0.7791264646
0.8046155212
0.8744936754
0.9343690195
0.7894325395
0.8419541283
0.8351456509
0.7919884915
0.7919856745
0.9197399420
0.8353696025
0.7929259101
0.7869746632
0.8369996122
0.7939715576
0.8622321262
0.8241681333
0.8591010895
0.7660660301
0.8319070870
0.8184473060
0.8197803090
0.7934797276
0.8269324395
0.7875344903
0.7974055800
0.7742731069
0.8300910502
0.7973257086
0.8316237584
0.8299024583
0.8155472951
0.9846787504
0.9164649908
0.9919602342
0.8234316359
0.7911994121
0.8939053087
0.8409878003
0.7978184348
0.7923697479
0.8438017506
1.0003836344
0.8369944239
0.8412721220
0.7819735716
0.8110017384
0.9448156330
0.9925345421
0.7798152102
0.8055300581
0.8981453250
0.9715741123
0.7910413389
0.8385801685
0.8526470711
0.7923198430
0.7920150947
0.9091284519
0.7792075388