<VTKFile type="UnstructuredGrid" version="0.1">
	<UnstructuredGrid>
		<Piece NumberOfPoints="1862" NumberOfCells="3498">
			<CellData>
				<DataArray type="Int32" Name="type" NumberOfComponents="1" Format="ascii">
0
0
0
0
0
0
0
0
0
0
0
0
0
0
0
0
1
0
0
1
0
0
0
0
0
0
0
0
0
0
0
0
0
1
0
0
0
0
0
0
0
0
0
0
0
0
0
0
0
0
1
0
0
0
0
0
0
0
0
0
0
1
0
0
0
0
0
0
0
0
0
0
0
0
0
0
0
0
0
0
0
0
0
0
0
0
0
0
0
0
0
0
0
0
0
0
0
0
0
0
0
0
0
0
0
0
0
0
0
0
0
0
0
0
0
0
0
0
0
0
0
0
0
1
0
0
0
0
0
0
0
0
0
0
0
0
0
0
0
0
0
0
0
0
0
0
0
0
0
0
0
1
0
1
1
0
0
0
0
0
0
0
0
0
0
0
0
0
1
0
1
0
0
0
0
1
0
0
0
0
0
0
0
0
1
1
0
0
0
0
0
1
0
0
0
0
0
0
0
0
1
0
0
0
0
0
0
0
0
0
0
0
0
0
0
0
0
0
0
0
0
0
0
0
0
0
0
0
0
0
0
0
0
1
0
0
0
0
0
0
0
0
0
0
0
0
0
0
0
0
0
0
0
0
0
0
0
0
0
0
0
0
0
0
0
0
0
0
0
0
0
0
0
0
0
0
0
0
0
0
0
1
0
0
0
0
0
0
0
0
0
0
0
0
0
0
0
0
0
0
0
0
0
0
0
0
0
0
0
0
0
0
0
0
0
0
0
0
0
0
0
0
0
0
0
0
0
0
0
0
0
0
1
0
0
0
0
0
0
0
0
0
0
0
0
0
0
0
0
0
0
0
0
0
0
0
0
0
0
0
0
0
0
0
0
0
0
0
0
0
0
0
0
0
0
0
0
0
0
0
0
0
0
0
0
0
0
0
0
0
1
0
0
0
0
0
0
0
0
0
0
0
0
0
0
0
0
0
0
0
0
0
0
0
0
0
0
0
0
0
0
0
0
0
0
0
0
0
0
0
0
0
0
0
0
0
0
0
0
0
0
0
0
0
0
0
0
0
0
0
0
0
0
0
0
0
0
0
0
0
0
0
0
0
0
0
0
0
0
0
0
0
0
0
0
0
0
0
0
0
0
0
0
0
0
0
0
0
0
0
0
0
0
0
0
0
0
0
0
0
0
0
0
0
0
0
0
0
0
0
0
0
0
0
0
0
0
0
0
0
0
0
0
1
0
0
0
0
0
0
0
0
0
0
0
0
0
0
0
0
0
0
0
1
0
0
0
0
0
0
0
0
0
0
0
0
0
0
0
0
0
0
0
0
0
0
0
0
0
0
0
0
0
0
0
0
0
0
0
0
0
0
0
0
0
0
0
0
0
0
0
0
0
0
0
0
0
1
0
0
0
0
0
0
0
0
0
0
0
0
0
0
0
0
0
0
0
0
0
0
0
1
0
0
0
0
0
0
0
0
0
0
0
0
0
0
0
0
0
0
0
1
0
0
0
1
0
0
0
0
0
0
0
0
0
0
0
0
0
0
0
0
0
0
0
0
0
0
0
0
0
1
0
0
0
0
0
0
0
1
0
0
0
0
0
0
0
0
0
0
0
0
0
0
0
0
0
0
0
0
0
0
0
0
0
0
1
0
0
0
0
0
0
0
1
0
0
0
0
0
0
1
0
0
0
0
0
0
0
0
0
0
0
0
0
0
0
0
0
0
0
0
0
0
0
0
0
0
0
0
0
0
0
0
0
0
0
0
0
0
1
0
0
0
0
0
1
0
0
0
0
0
0
0
1
0
0
0
0
0
0
0
0
0
0
0
0
0
1
0
0
0
0
0
0
0
0
0
0
0
0
0
0
0
0
0
0
0
0
0
0
0
0
0
0
0
0
0
0
0
0
0
0
0
0
0
0
0
0
0
0
0
0
0
0
0
0
0
0
0
0
0
1
0
0
0
0
0
0
0
0
0
0
0
0
0
0
0
0
0
0
0
1
0
0
0
0
0
0
0
0
0
1
0
0
0
0
0
0
0
0
0
0
0
0
0
0
0
0
0
0
0
0
0
0
0
0
0
0
0
0
0
1
0
1
0
0
0
0
0
0
0
0
0
0
0
0
0
0
0
0
0
0
0
0
0
0
0
0
0
0
0
1
0
0
0
1
0
0
0
0
0
0
0
0
0
0
0
0
0
0
0
0
0
0
0
0
0
0
0
0
0
0
0
0
1
0
0
0
0
0
0
0
0
0
0
0
0
0
0
0
0
0
0
0
0
0
0
0
0
0
1
0
0
0
0
0
0
0
0
0
0
0
0
0
0
0
0
0
0
0
0
0
0
0
1
0
0
0
0
0
0
1
0
0
0
0
0
0
0
0
0
0
0
1
0
0
0
0
0
0
0
0
0
0
0
0
0
0
0
0
0
0
0
0
1
0
0
0
0
0
0
0
0
0
0
0
1
0
0
0
0
0
0
0
0
0
0
0
0
0
0
0
0
0
0
0
0
0
1
0
0
0
0
0
0
0
0
0
1
1
0
1
0
1
0
0
0
0
0
0
0
0
0
0
0
1
0
0
0
0
0
1
1
0
0
0
0
0
0
1
0
0
0
0
0
1
1
1
0
0
0
0
0
0
0
0
0
0
0
0
1
1
0
0
1
0
0
0
0
0
1
0
0
0
1
0
1
0
0
0
0
0
0
0
1
0
0
0
0
0
0
0
1
0
0
1
0
0
0
0
0
0
0
0
0
0
0
0
0
0
0
1
0
0
0
0
0
0
0
0
0
0
0
0
0
0
0
0
0
0
0
0
0
0
0
0
0
0
0
0
0
0
0
0
0
0
0
0
1
0
0
0
0
0
0
1
0
0
0
1
0
0
0
0
0
0
0
0
0
0
0
1
0
0
0
0
0
0
0
0
0
0
0
0
0
0
0
0
0
0
0
0
0
0
0
0
0
0
0
0
0
0
0
0
0
0
0
0
0
0
0
0
1
1
0
0
0
0
0
0
0
0
0
0
0
0
0
1
0
0
0
0
0
0
0
0
0
0
0
0
0
0
0
0
0
0
0
0
0
0
0
0
0
0
0
0
0
0
0
0
0
0
0
0
0
0
0
0
0
0
0
0
0
0
0
0
0
0
0
0
0
0
0
0
0
0
0
0
0
0
0
0
0
0
0
0
0
0
0
0
1
1
0
0
0
0
0
0
0
0
1
0
0
0
0
0
0
0
0
0
0
0
0
0
0
0
0
0
0
0
0
0
0
0
1
0
0
0
0
0
0
0
0
0
0
0
0
0
0
0
0
1
0
0
0
0
0
0
0
0
0
0
0
0
0
0
0
0
0
0
0
0
0
0
0
0
0
0
0
0
0
0
0
0
0
0
0
0
0
0
0
0
0
0
0
0
0
0
0
0
0
0
0
0
0
0
0
0
0
0
0
0
0
0
0
0
0
0
0
0
0
0
0
0
0
0
0
0
0
0
0
0
0
0
0
0
0
0
0
0
0
0
1
1
0
0
0
0
0
1
0
0
0
0
0
0
0
0
0
0
0
0
1
0
0
0
0
0
0
0
0
0
0
0
0
0
0
0
0
0
0
0
0
0
0
0
0
0
0
0
0
0
0
0
0
0
0
0
0
0
0
0
0
0
0
0
0
0
0
0
0
0
0
0
0
0
1
0
1
0
0
0
0
0
0
0
0
0
0
0
0
0
0
0
0
0
0
1
0
0
0
0
0
0
0
0
0
0
0
0
0
0
0
0
0
0
0
0
0
0
0
0
0
0
0
0
0
0
0
0
0
0
0
0
0
0
0
0
0
0
0
0
0
0
0
0
0
0
0
0
0
0
0
0
0
0
0
0
0
0
0
0
0
0
0
0
0
0
1
0
0
0
0
0
0
0
0
0
0
1
0
0
0
0
0
0
0
0
0
0
0
0
0
0
0
0
0
0
0
0
0
0
0
0
0
0
0
0
0
0
0
0
0
0
0
0
0
1
0
0
0
0
0
0
0
0
0
0
0
0
0
0
0
0
0
0
0
0
0
0
0
0
0
0
0
0
0
0
0
0
0
0
0
0
0
0
0
0
0
0
0
0
0
0
0
0
0
0
0
0
0
0
0
0
0
0
0
0
0
0
0
0
0
0
0
0
0
0
0
0
0
0
0
0
0
0
0
0
0
1
0
0
0
0
0
0
0
0
0
0
0
0
0
0
0
0
0
0
0
0
0
0
0
0
0
0
0
0
0
0
0
0
0
0
0
0
0
0
0
0
0
0
0
0
0
0
0
0
0
0
0
0
0
0
0
0
0
0
0
0
0
0
0
0
0
0
0
0
0
0
0
0
0
0
0
0
0
0
0
0
0
0
0
0
0
0
0
0
0
0
0
0
0
0
0
0
0
0
0
0
0
0
0
0
0
0
0
0
0
0
0
0
0
0
0
0
0
0
0
0
0
0
0
1
0
0
0
0
0
0
0
0
0
0
0
0
0
0
0
0
0
0
0
0
0
0
0
0
0
0
0
0
0
0
0
0
0
0
0
0
0
0
0
0
0
0
0
0
0
0
0
0
0
0
0
0
0
0
0
0
0
0
0
0
0
0
0
0
0
0
0
0
0
0
0
0
0
0
0
0
0
0
0
0
0
1
0
0
0
0
0
0
0
1
0
0
0
0
0
0
0
0
0
0
0
0
0
0
0
0
0
0
0
0
0
0
0
0
0
0
0
0
0
0
0
0
0
0
0
0
0
1
0
0
0
0
0
0
0
0
0
0
0
0
0
0
0
0
0
0
0
0
0
1
0
0
0
0
0
0
0
0
0
0
0
0
1
1
0
0
0
0
0
0
0
0
0
0
0
0
0
0
0
1
1
0
1
0
0
0
0
0
0
0
0
0
1
0
0
0
0
0
0
1
0
0
0
0
0
0
0
0
0
0
1
0
0
0
0
1
0
1
0
0
0
0
0
0
0
1
0
0
0
1
0
0
0
1
0
1
1
0
0
1
1
0
0
0
1
0
0
0
1
0
0
0
0
0
0
0
0
0
1
0
0
0
0
0
0
1
0
0
0
0
0
0
0
0
0
0
0
0
0
0
0
0
0
0
0
0
0
0
0
0
0
0
0
1
0
0
1
0
0
0
0
0
0
0
0
0
0
0
0
0
0
0
0
0
0
1
0
0
1
0
0
0
0
0
0
0
0
0
0
0
1
0
0
1
0
0
0
0
0
0
0
0
0
0
0
1
1
0
0
0
0
0
0
0
0
0
0
0
0
1
0
0
0
0
0
0
0
0
0
0
0
0
0
0
0
0
0
1
0
0
0
0
0
0
0
0
0
0
0
0
0
0
0
0
0
1
0
0
0
0
0
0
0
0
0
0
0
0
0
0
0
0
0
0
0
0
0
0
0
0
0
0
0
0
0
0
0
0
0
0
0
0
0
0
0
0
1
0
0
0
0
0
0
0
0
0
0
0
0
0
0
0
0
0
0
0
0
0
0
0
0
0
0
0
0
0
0
0
0
0
0
0
0
0
0
0
0
0
0
0
0
0
1
0
0
0
0
0
0
0
0
0
0
0
0
0
0
0
0
0
0
0
0
0
0
0
0
0
0
0
0
0
0
0
0
0
0
0
0
0
0
0
0
0
0
0
0
0
0
0
1
0
0
0
0
0
0
0
0
0
0
1
0
0
0
0
0
0
0
0
0
0
0
0
0
0
0
1
0
0
1
0
0
0
0
0
0
0
0
0
0
0
0
0
0
0
0
0
0
0
0
0
0
0
1
0
0
0
0
0
0
0
0
0
0
0
0
0
0
0
0
0
0
0
0
0
0
0
0
0
0
0
0
0
0
0
0
0
0
0
1
0
0
0
0
0
0
0
0
0
0
0
0
0
0
0
0
0
0
0
0
0
0
0
0
0
0
0
0
0
0
0
0
0
0
0
0
0
0
0
0
0
0
0
0
0
0
0
0
0
0
0
0
0
0
0
0
0
0
0
0
0
0
0
0
0
0
0
0
0
0
0
0
0
0
0
0
1
0
0
0
0
0
0
0
0
0
0
0
0
0
0
0
0
0
0
0
0
0
0
0
0
0
0
0
0
0
0
0
0
0
0
0
0
0
0
0
1
0
0
0
0
0
0
0
0
0
0
0
0
1
1
0
0
0
0
0
0
0
0
0
0
0
0
0
0
0
0
0
0
0
0
0
0
0
0
0
0
0
0
0
0
0
0
0
0
0
0
0
0
0
0
0
0
0
0
0
0
0
0
0
0
0
0
0
0
0
0
0
0
0
0
0
0
0
0
0
0
0
0
0
0
0
0
0
0
0
0
0
0
0
0
0
0
0
0
0
0
0
0
0
0
0
0
0
0
0
0
0
0
0
0
0
1
0
1
0
0
0
0
0
0
0
1
1
1
1
0
0
0
0
0
0
0
0
0
0
0
0
0
0
0
0
0
0
0
0
0
0
0
0
0
0
0
0
1
1
0
0
0
0
0
0
0
0
0
0
0
0
0
0
0
0
0
0
1
0
0
0
0
0
0
0
1
1
0
1
1
0
0
1
0
0
0
0
0
0
0
1
0
1
0
0
0
0
0
0
0
0
0
0
0
0
0
0
0
0
0
0
0
0
0
0
0
0
0
0
0
1
1
0
0
0
1
1
0
0
0
0
1
0
0
1
0
1
0
0
0
0
0
1
0
0
0
1
0
0
0
0
0
0
0
0
0
0
0
0
0
0
0
0
0
0
0
0
0
0
0
0
0
0
0
1
0
0
0
0
0
0
1
0
0
0
0
0
0
0
0
0
0
0
0
0
0
0
0
0
0
0
0
0
0
0
0
0
0
0
0
0
1
0
1
0
0
0
0
0
0
0
1
0
0
0
0
0
0
0
0
0
0
0
1
0
0
0
0
0
0
0
0
0
1
0
0
0
0
0
0
0
1
0
0
0
0
0
0
0
1
0
0
0
0
0
0
0
0
0
0
0
0
0
0
0
0
0
0
0
1
0
1
0
0
0
0
0
1
0
0
0
0
0
0
0
0
0
0
0
0
0
0
0
0
0
0
0
0
0
0
0
0
0
1
0
1
0
0
0
0
0
0
0
0
0
1
0
0
0
0
0
1
0
0
0
0
0
0
0
0
0
0
0
0
0
0
0
1
0
0
0
0
0
0
0
0
1
0
0
0
0
0
0
0
0
0
0
0
0
0
0
0
0
0
0
0
0
0
0
0
0
0
0
0
0
0
0
1
0
0
0
0
0
0
0
0
0
0
0
0
0
0
0
0
1
0
0
0
0
0
0
0
0
1
0
0
0
0
0
0
0
0
0
1
0
0
0
0
0
1
0
0
0
0
0
0
0
0
0
0
0
0
0
0
0
0
0
0
0
1
0
0
0
0
0
0
1
0
0
0
0
0
0
0
0
1
0
0
0
0
0
0
0
0
0
0
0
0
0
0
1
0
0
1
0
0
0
1
0
0
0
0
0
0
0
0
0
0
0
0
0
0
0
0
1
0
0
0
0
0
0
0
0
0
0
1
0
1
0
0
0
0
0
0
1
0
0
0
0
0
0
0
0
0
0
0
0
0
0
0
0
0
0
0
0
0
0
0
0
0
0
0
1
1
0
0
0
0
0
0
1
0
0
0
0
0
0
0
0
0
0
0
0
0
1
0
0
0
0
0
0
0
1
0
0
0
0
0
0
0
0
0
0
0
0
0
0
0
0
0
0
0
0
0
0
0
0
0
0
0
1
0
0
0
0
0
0
0
0
0
0
1
0
0
1
0
0
0
0
0
0
0
0
0
0
0
0
0
0
0
0
0
0
0
0
0
0
0
0
0
0
0
0
0
1
0
0
0
0
0
0
0
1
0
0
0
0
0
0
0
1
0
0
0
0
1
0
0
0
0
0
0
0
0
0
0
0
1
0
1
0
0
0
1
0
				</DataArray>
				<DataArray type="Float64" Name="h" NumberOfComponents="1" Format="ascii">
0.8245644545
0.8245675783
0.8230801473
0.8198564323
0.8252846021
0.8239475705
0.8217235209
0.8204255006
0.8229318856
0.8187164611
0.8192785885
0.8215785117
0.8217833537
0.8183490794
0.8214738899
0.8210309324
0.8198288561
0.8199392189
0.8229838830
0.8178488406
0.8236207507
0.8237768159
0.8246469691
0.8268562821
0.8187846118
0.8224299778
0.8242548216
0.8300595574
0.8265197200
0.8174419925
0.8169659331
0.8260471769
0.8231146504
0.8225767315
0.8337257134
0.8285642299
0.8270478961
0.8250988775
0.8265634990
0.8258617486
0.8273454362
0.8326183954
0.8254638485
0.8267601958
0.8290479764
0.8291631525
0.8267574749
0.8370616278
0.8833455221
0.8702690825
0.8259368111
0.8293132142
0.8284189568
0.8438099353
0.8323845954
0.8252396690
0.8309906235
0.8429792291
0.8482064352
0.8440339472
0.8555863829
0.8506868617
0.8801910003
0.8307583911
0.8281516118
0.8318401107
0.8577414231
0.8678218523
0.8508683285
0.8465184872
0.8466284001
0.8344331058
0.8246128568
0.8491400884
0.8492042041
0.8213925931
0.8440484476
0.8553038567
0.8394783633
0.8243923212
0.8656224709
0.8340879929
0.9191862813
0.8557948407
0.8230881997
0.8241829462
0.8714707528
0.8439836976
0.8592880749
0.9063454347
0.8773722118
0.8237423304
0.8609810339
0.8920251049
0.8298799003
0.8277563259
0.8331876549
0.8241262531
0.8275246237
0.8723853486
0.9104288587
0.8661395930
0.8381267713
0.8387234704
0.8169958447
0.8468439734
0.8246748834
0.8933965286
0.8566643019
0.8339096262
0.8820611089
0.8965516929
0.8681582502
0.8791644465
0.8474627226
0.9076638184
0.8418136157
0.8178941311
0.8956110269
0.8575322952
0.8168717876
0.8378219385
0.8201273907
0.8144738694
0.8700354348
0.8969172882
0.8506015520
0.8145757111
0.9002120533
0.9095662125
0.8915704062
0.8292348351
0.8600805179
0.9091922740
0.8159606837
0.8910592312
0.8205857207
0.9156778181
0.8792647756
0.8224533169
0.8155193827
0.8146881338
0.8990264395
0.8238149519
0.8231824520
0.8848772998
0.8212614983
0.9358213493
0.8151075801
0.9436903109
0.8196580217
0.9178533788
0.9227340516
0.9441583790
0.8722817098
0.9226016444
0.9369161473
0.8165543286
0.9421615644
0.8146860169
0.8241500374
0.9343543818
0.8209779748
0.8147955111
0.8156174855
0.9232553733
0.8243445906
0.8231276675
0.8143414993
0.9271242440
0.9315959779
0.8143601357
0.9416123627
0.8177754243
0.8247257447
0.9541144917
0.8248928177
0.9384794158
0.9512923143
0.8153697076
0.9202209244
0.8235026321
0.8148079075
0.8191615266
0.8128824054
0.8156540746
0.8239272042
0.9486353816
0.8149598728
0.8168705763
0.8216512935
0.9498997014
0.8149457235
0.8226071526
0.9530042924
0.9336332169
0.8174627826
0.8195928216
0.8207873927
0.9491904594
0.8164102566
0.8202824843
0.8160303635
0.9494548170
0.8177397761
0.8162612814
0.8231920737
0.8201865343
0.8187339766
0.8247358992
0.8219287009
0.8154205213
0.8171925126
0.8174406014
0.8216995565
0.8198588458
0.8240068539
0.8177440742
0.8236367280
0.8152061956
0.8175013254
0.8944792978
0.8246386285
0.8637392936
0.8199087259
0.9453175407
0.9221330208
0.8369179976
0.8171040591
0.9092351832
0.9475519263
0.8789749681
0.8266074789
0.9482383384
0.9402951066
0.8495836588
0.8211803546
0.8250034831
0.8163732504
0.8260688399
0.8230195724
0.8220026624
0.8179064033
0.8253784590
0.8212530121
0.8244397362
0.8177013202
0.8231787367
0.8236229135
0.8194920237
0.8259298511
0.8246880142
0.8187846939
0.8192236306
0.8213612836
0.8190316719
0.8252265632
0.8230229909
0.8174537663
0.8732475940
0.8256942671
0.8188692195
0.8326312021
0.8591496324
0.8225481409
0.9367578258
0.9434145098
0.8175290195
0.9462424155
0.8912931047
0.9204516354
0.8246695402
0.9044010075
0.8433299752
0.8575556747
0.8185501543
0.8236449328
0.8447027415
0.8750214560
0.8181658502
0.9179216632
0.9453924297
0.9426396137
0.9384163664
0.9068622994
0.8891158656
0.8312933414
0.8273039791
0.8197281701
0.8204991383
0.8260570723
0.8230440978
0.8243347665
0.8233395150
0.8285876794
0.8267231461
0.8266039548
0.8259461671
0.8213073854
0.8190583277
0.8209185557
0.8248704403
0.8245294880
0.8261393173
0.8219562489
0.8282344813
0.8276287028
0.8266578383
0.8203820321
0.8219816071
0.8389374332
0.8311189971
0.9433506303
0.8212037788
0.9182358880
0.8687936143
0.8283410169
0.9014104072
0.9413908391
0.8258346218
0.8557691933
0.8213744382
0.8880085256
0.9350173707
0.8241273911
0.8282035125
0.8422013267
0.9401198297
0.8530584900
0.8853051757
0.9157949879
0.9368102886
0.9427233292
0.8241014402
0.8715619878
0.8192941650
0.9039976725
0.8283841251
0.9386835539
0.8326097280
0.8336228336
0.8292765097
0.8212946141
0.8281063258
0.8271874325
0.8304952726
0.8257002372
0.8225574112
0.9226363772
0.8517492541
0.8343358206
0.8737422397
0.8271886296
0.8224322153
0.9348792528
0.8317522942
0.8627492277
0.8333372375
0.8290829296
0.8947027801
0.8997475864
0.9371023686
0.8209241784
0.8285121548
0.8283684608
0.8289292444
0.8629013695
0.8629196894
0.8552045060
0.8229846281
0.8730393270
0.9163863899
0.8237325635
0.9399689467
0.8655237026
0.8549422636
0.9335328497
0.8370040264
0.9160559802
0.8288662501
0.8286467598
0.8982620454
0.9407833967
0.8330872991
0.8858811993
0.8290234204
0.8242547640
0.8378385111
0.8335753562
0.8699661589
0.9404131442
0.8331457270
0.8502262444
0.8848368069
0.9355785339
0.8699218427
0.8412872871
0.8527242153
0.8584102422
0.8818236856
0.8288103342
0.9132396524
0.8788570372
0.8819345499
0.8837046233
0.9382471559
0.9016198010
0.8244034488
0.8285151572
0.8749088588
0.8422378364
0.8559473952
0.8820926012
0.8635095799
0.8319049665
0.9312610841
0.9100851638
0.8341344696
0.8864275589
0.8402231574
0.8739150632
0.8713126338
0.8286636310
0.9114659814
0.9368626618
0.8553099876
0.9361263646
0.8235512872
0.9052869005
0.8365913287
0.8512787394
0.9406294814
0.8823844109
0.9250417165
0.8659599727
0.8626411357
0.9317008934
0.8960687142
0.9313097204
0.8827221548
0.8742957834
0.8947772816
0.8303685700
0.9130471336
0.8827555235
0.8331715309
0.8409259466
0.8836504929
0.8678946443
0.9134748802
0.8926427665
0.9372802226
0.8229907822
0.8442965271
0.8356148259
0.8713052984
0.9429127870
0.9309585122
0.8771799085
0.9416559061
0.8250182647
0.8381383012
0.8371541418
0.9385761078
0.8348690163
0.8654098394
0.8457835090
0.8308786480
0.8879452453
0.8325779197
0.9322591274
0.8415899755
0.8961392505
0.8456826263
0.8391274769
0.8399226047
0.9507750081
0.8807129842
0.8263169108
0.8388225613
0.8426680998
0.8501448443
0.8348515806
0.9369439915
0.9519982304
0.9473783678
0.9110377026
0.8472029750
0.8512643555
0.8617428794
0.8891121137
0.8331079263
0.9572515917
0.8281640930
0.8412829721
0.8642997318
0.8394101854
0.9600075833
0.8802735039
0.8493574575
0.9229768672
0.9340470070
0.8756081630
0.8584042391
0.8818152783
0.8436525562
0.8331707814
0.8254280133
0.8530985409
0.8957024869
0.8472089726
0.8477738244
0.9042633305
0.8415787218
0.8887672650
0.8263180297
0.9042261429
0.8775716687
0.8284136553
0.8474996664
0.8477719291
0.8739196011
0.8830260773
0.9391826773
0.8413781325
0.9234142042
0.8556353856
0.8875622968
0.8886214702
0.8553330801
0.9031920489
0.8371493089
0.8839306591
0.8354515484
0.8325751823
0.8983735064
0.8281629484
0.8394019206
0.8254316921
0.8886163501
0.8501461202
0.8973424661
0.8782280752
0.8265507303
0.8905384329
0.8444867552
0.8472591522
0.8456754869
0.8948173048
0.8709162435
0.9439992310
0.8849616602
0.8383353328
0.8966050747
0.8303577756
0.8946943784
0.8576601577
0.8635449985
0.9229525836
0.9359675723
0.8529357009
0.8565339927
0.9309615390
0.8348485677
0.8979952186
0.8961271288
0.8436415207
0.8457863870
0.9021455261
0.9373046268
0.8503239349
0.8910618983
0.9250593940
0.8961169706
0.8402326366
0.8322996948
0.8512635553
0.8896679659
0.9042550670
0.8651002179
0.8538722204
0.8679284469
0.9229709616
0.8620730668
0.8922766535
0.8414026492
0.9313238671
0.8821479922
0.8409330588
0.8798134782
0.9361463796
0.9026761552
0.8696010568
0.9008521542
0.8872782195
0.8443041124
0.8677299370
0.8298485745
0.9570383354
0.8845962164
0.8885390617
0.8618657975
0.9507683444
0.8495267698
0.8553218439
0.8932896618
0.9051252223
0.9499011124
0.9101301182
0.8622429457
0.9030342797
0.8378730792
0.9429192297
0.8723295946
0.8896660855
0.8453271995
0.9052513075
0.8354478473
0.8503118040
0.8553254919
0.8413733127
0.9434699881
0.8929091159
0.8348083439
0.8284136501
0.8580703681
0.8716888253
0.9680108184
0.8303554991
0.8947365902
0.9051228519
0.8792414297
0.9001815098
0.8576547985
0.8474887576
0.8529251873
0.8383316801
0.9489063963
0.9731704112
0.9289929993
0.8972266287
0.8265533732
0.9054990911
0.9053577360
0.8701836531
0.9554315544
0.9342165774
0.8966024857
0.8991435977
0.9544390177
0.8740012991
0.8585278740
0.8337974468
0.8444088691
0.8693128248
0.8669547481
0.8727686710
0.8444790555
0.9357481897
0.8537175883
0.8318365265
0.8404038741
0.9161372721
0.9599440141
0.9753979411
0.9219525855
0.8649453553
0.8630199587
0.8368379541
0.8489943672
0.9698742770
0.9736604890
0.8983680562
0.9038803304
0.9027296225
0.8877475215
0.9521068059
0.8865870735
0.8928458592
0.9905687262
0.9866516503
0.8902606290
0.8936958117
0.9624369517
0.8948834186
0.8979911350
0.8811377012
0.9775318257
0.9878626083
0.9851849516
0.8887191503
0.8815502297
0.8742037375
0.8766550296
0.8840786148
0.9739244665
0.9853251988
0.9418953362
0.9592393859
0.8669557452
0.9930259642
0.9972504945
0.8692740263
0.9731727859
0.9618957093
0.8622402686
0.9994978712
0.8849548083
0.9834628325
0.8669684048
0.8742157805
0.9989018442
0.8723272187
0.9944237155
0.9829611700
0.8565287598
0.9753262042
0.8578079405
0.8598931341
0.9697837931
0.9668859190
0.8444051410
0.8237348495
0.8239004732
0.8239063005
0.8237335466
0.8213940992
0.8215715353
0.8192666392
0.8212985812
0.8254409354
0.8239484789
0.8252846108
0.8254351914
0.8229350309
0.8214648922
0.8217137299
0.8190037383
0.8213107746
0.8214014071
0.8222124364
0.8199271186
0.8198698305
0.8230838861
0.8229851880
0.8174255064
0.8212313057
0.8210731402
0.8204370035
0.8224213675
0.8187702743
0.8187322508
0.8227206150
0.8217925365
0.8247339572
0.8231418950
0.8248987801
0.8190182168
0.8169479963
0.8222229060
0.8225706101
0.8231045612
0.8260520295
0.8245398619
0.8258603568
0.8269445558
0.8198415240
0.8210446561
0.8254699957
0.8265876763
0.8210801893
0.8212414694
0.8273510436
0.8183645771
0.8178669549
0.8247368521
0.8246350535
0.8376111848
0.8237788093
0.8285088780
0.8227274651
0.8236235638
0.8248970075
0.8239951717
0.8313436137
0.8370541523
0.8231539214
0.8290481586
0.8259325867
0.8267722275
0.8300266387
0.8268554192
0.8265021001
0.8310060582
0.8260115845
0.8242606896
0.8299025574
0.8206661329
0.8269247248
0.8347899110
0.8321051054
0.8245489379
0.8284338798
0.8376184546
0.8794903496
0.8709072279
0.8239926828
0.8285120893
0.8312507459
0.8313149682
0.8285586604
0.8281808242
0.8250862624
0.8365435724
0.8337321537
0.8801588865
0.8677891520
0.8341232206
0.8270508168
0.8307658259
0.8347841066
0.8418545659
0.8431244786
0.8267309582
0.8491210945
0.8426354749
0.8344325425
0.8246135939
0.8469893646
0.8242083239
0.8254455444
0.8299045402
0.8555027387
0.8321117374
0.8326089776
0.8440367571
0.8466179247
0.8508982455
0.8491865304
0.8259926361
0.8262726009
0.8508572043
0.8302071609
0.8206789686
0.8465059025
0.8312518501
0.8365496536
0.8280998154
0.8341068249
0.8594972718
0.8391466446
0.8659796306
0.8833719252
0.8292967085
0.8709464631
0.8291331722
0.8341032249
0.8557764721
0.8365203494
0.8795241688
0.8703007850
0.8555947697
0.8506970634
0.8262585224
0.8603052347
0.8509150936
0.8482208890
0.8427447834
0.8426454494
0.8218485883
0.8248797778
0.8418657967
0.8302134157
0.8371684452
0.8323802384
0.8519075305
0.8470001154
0.8555132575
0.8252445551
0.8371885443
0.8493452056
0.8242008041
0.8438153700
0.8431362239
0.8440460514
0.8237446484
0.8429906201
0.8254244942
0.8609727534
0.8595091892
0.8387125895
0.8275438219
0.8365177137
0.8232228855
0.8391523037
0.8661369366
0.8537658719
0.8669849234
0.8485888839
0.8318179762
0.9104508526
0.8577628015
0.8353601347
0.8241349497
0.8604495771
0.8277697985
0.8390309419
0.8660265010
0.8723838965
0.8468203692
0.8280858984
0.9229976871
0.8371825726
0.8566460442
0.8965323999
0.8603132749
0.8493607279
0.8681426196
0.8371712552
0.8214007946
0.8771689492
0.8427566610
0.8553158712
0.8248792120
0.8768226259
0.8218522829
0.8820093464
0.8339313694
0.8519193004
0.8669956850
0.9229407512
0.8412059887
0.8604542572
0.8241875369
0.8378376363
0.8576206978
0.8353691321
0.8203832498
0.8390352189
0.8485818628
0.8230885452
0.8243919772
0.8714709295
0.9191268699
0.8656237075
0.8418286644
0.8394880003
0.8538115156
0.8168556610
0.8439969781
0.8232232504
0.8768230120
0.8292375243
0.8678467244
0.8195023223
0.8969122189
0.8664929863
0.8800183606
0.8593064145
0.8298767233
0.8920651973
0.9056528751
0.9063322508
0.8773788156
0.8929261724
0.8422978845
0.8700029359
0.8505866173
0.8772532959
0.9095966915
0.8381160577
0.9103425465
0.8624779396
0.8411992710
0.8203948978
0.8576427082
0.8826405160
0.8159421347
0.8910640144
0.8600553550
0.8170112757
0.8332057905
0.8231767263
0.8549489745
0.8146673199
0.8680621706
0.8195139789
0.9056284320
0.8791846813
0.8934042168
0.8195008160
0.8423086718
0.8800316367
0.8474613676
0.8150882419
0.8679129627
0.8990491295
0.8143995022
0.9076313911
0.8665132952
0.8848874525
0.8929326069
0.8246878815
0.8155193206
0.8201335279
0.8495496043
0.9240808138
0.9103200533
0.8826700019
0.8189130152
0.9078339750
0.9067698222
0.8781118598
0.8575530658
0.8625878261
0.9178791833
0.8179092821
0.8849791804
0.8956110752
0.8168504538
0.8196485156
0.9227712091
0.8722863765
0.8195175400
0.8144201833
0.8231176786
0.8155950000
0.8681011317
0.9378285618
0.8155385089
0.8145645894
0.9404985188
0.8429243163
0.8550168078
0.8144950422
0.9001888130
0.8241390433
0.8154721119
0.8201399129
0.8915592964
0.8155534113
0.8209662312
0.8923996761
0.9344060145
0.8145970988
0.9422059073
0.8781041574
0.8206005465
0.9091677871
0.9289786798
0.8377426751
0.9067469288
0.9149665859
0.9156405205
0.9416507621
0.8163506062
0.8188348905
0.8792576494
0.8168677980
0.8496534408
0.8189219525
0.9240467894
0.8201433169
0.8849683966
0.9271729320
0.8933573991
0.9078057432
0.9316288301
0.8177560874
0.9436457951
0.8147943489
0.8331215144
0.8154912531
0.8145862968
0.9194913441
0.9348569821
0.9447213998
0.8238236274
0.9357682278
0.8212722264
0.8153466910
0.9404500347
0.8155733013
0.8429761748
0.8155529091
0.8155459400
0.9202702601
0.8923825729
0.8248841112
0.8867862599
0.8224656352
0.9377818348
0.8148316265
0.8149412250
0.9225499096
0.9368768220
0.8188476648
0.8268613791
0.9289352979
0.8151901652
0.8163700362
0.8377946990
0.8128656208
0.9149249096
0.9441231317
0.8165708301
0.8933431803
0.8239282314
0.8239521677
0.9530410556
0.8243487640
0.8148493076
0.9194415508
0.9336967077
0.8155686259
0.9446793812
0.8867741738
0.9308701228
0.8146494614
0.9348138392
0.8331523597
0.8138591567
0.9499356139
0.9020447374
0.8148183191
0.9232032133
0.8226083415
0.9424465706
0.8147004274
0.8202649668
0.9528250230
0.8143765992
0.8160151110
0.8247311397
0.9494927703
0.8268896597
0.8143621897
0.8163931218
0.8152109018
0.8207845627
0.9515544212
0.9512547590
0.8169302329
0.8146623202
0.8138779038
0.8154079809
0.9423988428
0.9308113268
0.8155627745
0.9299159095
0.8235061067
0.9020273868
0.9540784361
0.8239727015
0.8160453957
0.8157781775
0.9384199519
0.8171543739
0.8187269750
0.8216530597
0.9475872596
0.9527897386
0.8168877791
0.9515188651
0.9470470080
0.9508231091
0.8191746392
0.8156702166
0.9485958367
0.8174971792
0.8176730712
0.8244319689
0.8185123642
0.8212463868
0.8195950844
0.8157955722
0.8180526326
0.8154848090
0.8253729322
0.8188846409
0.8169551464
0.8211837144
0.8149593925
0.8157218088
0.9298434880
0.8174885207
0.8163872278
0.8230146828
0.8198409174
0.8192258454
0.8252186269
0.8187567163
0.8231797402
0.8160626895
0.8163575429
0.8155860713
0.9449214477
0.8180158885
0.8177424831
0.9470074758
0.8890138055
0.8246670988
0.9507910601
0.8573969137
0.8181546768
0.9426807769
0.9179580843
0.9324734314
0.8312352085
0.8175199537
0.9043708651
0.9491593258
0.8730952916
0.8225265917
0.9462679269
0.9287930834
0.9368250322
0.8432156128
0.8219264357
0.8260533042
0.8205207904
0.8152195618
0.8266045093
0.8230482777
0.8188941207
0.8180544853
0.8185247612
0.8162622914
0.8204473600
0.8233349846
0.8197025455
0.8155000189
0.8247408134
0.8201915498
0.8232007522
0.8162693229
0.8236343982
0.8248663766
0.8203820017
0.8157400838
0.8266553144
0.8245352692
0.8177847830
0.8198588645
0.8219522853
0.8216920508
0.8177414883
0.8240154518
0.8198424660
0.8217098478
0.8164017495
0.8790818186
0.8258382217
0.8219846022
0.8192806522
0.8281705198
0.8529176974
0.8266503164
0.9287217190
0.9402389876
0.9401578890
0.8171139464
0.9482123268
0.9309935107
0.8851490213
0.9157863915
0.8246389088
0.9448821976
0.9092382299
0.8496902647
0.8638628719
0.8211855692
0.8213656823
0.8387952144
0.8686090061
0.8199312398
0.9220822902
0.9324027088
0.9433692166
0.8180221787
0.9452848943
0.9350732234
0.9013246762
0.9271934594
0.8945418453
0.8369909937
0.8283842928
0.8226604658
0.8179414603
0.8162765850
0.8212922918
0.8250083729
0.8230161503
0.8265273125
0.8256993089
0.8204587196
0.8220093142
0.8292828157
0.8281051936
0.8260678941
0.8205204648
0.8271879224
0.8224301339
0.8177624285
0.8195783294
0.8236291017
0.8246830773
0.8283561808
0.8240271074
0.8213624265
0.8216948954
0.8290856452
0.8285181505
0.8259328462
0.8195063814
0.8243819765
0.8448418566
0.8285046882
0.9453740540
0.8185620219
0.9131904714
0.8751823499
0.8290313078
0.9069128021
0.9271499952
0.9293740906
0.9382660972
0.8298443112
0.8256899285
0.8501868333
0.8236726026
0.8817748221
0.9383590749
0.8242428114
0.8327344633
0.8377399552
0.9433859128
0.8220017260
0.9253304301
0.8593076346
0.8914120907
0.9204330998
0.9335590038
0.9407897002
0.8286232462
0.8653729395
0.8188831450
0.8981467249
0.9309350996
0.9312429379
0.8512801784
0.8359777888
0.8864141473
0.8273049132
0.8226648401
0.9359065409
0.9274133063
0.8341442858
0.8594943181
0.8365884728
0.8285819755
0.8828183210
0.9114408282
0.9390404887
0.8205073725
0.8267221552
0.8265475829
0.8286648159
0.8319077882
0.8243381561
0.8559522490
0.8690996142
0.8626455949
0.8235477602
0.8642975160
0.9068411561
0.8253508806
0.9260885819
0.8477348802
0.8381271332
0.8755864281
0.8259483831
0.8213071094
0.9366791567
0.9325810009
0.8331778532
0.8598052816
0.8356200700
0.8282326424
0.8937088101
0.9024828237
0.9391640500
0.8195906532
0.8276229946
0.8261469828
0.8268372203
0.8303698862
0.8240296682
0.8572068957
0.8676090998
0.8543758371
0.8215367969
0.8725477817
0.9178199264
0.8250165494
0.8695988121
0.9369391501
0.8406467569
0.8717329319
0.8922605999
0.9277070982
0.8512242935
0.9367716732
0.8388274003
0.8426037721
0.8538165844
0.9109768842
0.8617492029
0.8893126381
0.8330879863
0.9253255582
0.8241205141
0.8769454593
0.9040900583
0.8799846641
0.9427145098
0.8348790821
0.8801601441
0.8283336436
0.8241393677
0.8422068052
0.8810149007
0.8331624043
0.8756156667
0.9385657922
0.8391115818
0.8559038425
0.8885454895
0.9322573555
0.8653220644
0.9293486286
0.8361141718
0.8387006206
0.8570455841
0.9235148931
0.8632774285
0.8871687466
0.8308618753
0.9182595395
0.8298686224
0.8846050206
0.8881597356
0.8879524753
0.9413702774
0.8960395666
0.8219945657
0.8311758799
0.8807217665
0.8399078738
0.8508245998
0.9223962040
0.8859277844
0.9263960851
0.8775796719
0.8594867794
0.8739304322
0.8863329339
0.8304936551
0.9341797269
0.9034552934
0.9146991204
0.9341664214
0.8867300128
0.8326011613
0.8888355687
0.8369888776
0.8690919353
0.8487984850
0.8656451571
0.8808024753
0.8271875955
0.9150667756
0.9390554676
0.8577338022
0.9229534975
0.8888042784
0.9032018331
0.9391277492
0.8225611315
0.8446744559
0.9068542292
0.8336228421
0.8628948753
0.8739231146
0.9439934568
0.9359596945
0.8487964833
0.8839425793
0.9392890739
0.8828167695
0.9274265035
0.9371987878
0.8253525425
0.8359949331
0.8642892619
0.8634512833
0.9368457365
0.8517478972
0.9305680500
0.9008507837
0.9052859690
0.9345943780
0.8791839197
0.8629111839
0.8709194098
0.8939399329
0.8289289124
0.9359253605
0.9137957190
0.9223859097
0.8850615770
0.8317475030
0.8997709939
0.8396131399
0.8767902450
0.8767980745
0.8818287550
0.8268368002
0.9226567006
0.9348966758
0.8710552727
0.9134616402
0.8923177536
0.9395615823
0.8215423690
0.8388930658
0.8659695558
0.8947104696
0.8333308247
0.8656388527
0.9434635411
0.9311834924
0.8552029431
0.8753764536
0.9390205184
0.8725402543
0.9178378888
0.9427562071
0.8237360771
0.8343442793
0.8597959044
0.8737446337
0.8350646724
0.9404166876
0.9429245117
0.9507683042
0.9235359975
0.8330777955
0.8426627463
0.8700503337
0.8632715507
0.8910666593
0.8469600248
0.8288193252
0.8836966290
0.9570385466
0.8286562676
0.8425989523
0.8307951931
0.9355682334
0.8750990148
0.8388777570
0.9544404661
0.9017202859
0.8513365242
0.9127856465
0.9417600906
0.8695896987
0.8527181430
0.8791544124
0.8791461901
0.8419516811
0.8331658163
0.8422931918
0.9494435808
0.8748999534
0.8913877421
0.8252075446
0.8369995175
0.8512628765
0.8929766831
0.8465610522
0.8548987018
0.8452788968
0.8447421422
0.9144802505
0.8329411167
0.9399651559
0.9499042407
0.9451084669
0.9161047935
0.8441118099
0.8550054874
0.8570397092
0.8883078950
0.8288830735
0.8913804333
0.9554324657
0.8267184256
0.8386962315
0.8303415567
0.9277141852
0.8696073739
0.8370751573
0.9567582387
0.8860153622
0.8465558355
0.9236898720
0.9326195057
0.8699584785
0.8538110636
0.8871608216
0.8646353291
0.8404644347
0.8406643105
0.8335846614
0.9490190691
0.8810070083
0.8238257333
0.8361099612
0.8487217409
0.8477203944
0.8965731659
0.8402170121
0.8513423377
0.8434774841
0.9042471996
0.8949744198
0.8286549532
0.8388674274
0.8867249844
0.8252110470
0.9034437079
0.8827157276
0.8477243829
0.9012650494
0.8738885400
0.8793948343
0.8296808519
0.8930282771
0.9372545270
0.8514958631
0.8712570817
0.8489390933
0.8434737658
0.8933969702
0.8712455078
0.8543732789
0.8807941750
0.8727893411
0.9150384614
0.9367071428
0.8887706939
0.8572031703
0.9372643367
0.8855915787
0.8443618347
0.9223911201
0.9025201456
0.8931089928
0.8512604358
0.8508263335
0.8327605316
0.8863213264
0.8730320162
0.8856250976
0.8980840556
0.9250308874
0.8602282135
0.8634807573
0.9387066412
0.9383065533
0.8676006029
0.9029997332
0.9438995505
0.8603416953
0.8592087713
0.9029934484
0.9231964977
0.8350614291
0.9025122296
0.8828755430
0.8377571335
0.8307932794
0.9163966006
0.8999705542
0.8267190530
0.8370685970
0.8916498043
0.8238326185
0.8939275639
0.8856185002
0.8875725865
0.8452798917
0.8992777269
0.8742863393
0.8815243638
0.8283326926
0.8937022529
0.8480342112
0.8507546650
0.8419428439
0.8975451414
0.8635187434
0.8771684687
0.8827488934
0.8742212717
0.9371179461
0.9234215000
0.9392981247
0.8882211373
0.8409672207
0.9130386152
0.8972695740
0.8537277022
0.8320421987
0.8818185858
0.9438950299
0.8916535302
0.8946131589
0.8628716861
0.8669737679
0.9305675005
0.9416617555
0.8576887687
0.8607062908
0.9134686821
0.9372008235
0.8329391595
0.8992015731
0.8926311436
0.8347949581
0.8303390664
0.9009246183
0.8404529451