<VTKFile type="UnstructuredGrid" version="0.1">
	<UnstructuredGrid>
		<Piece NumberOfPoints="1862" NumberOfCells="3498">
			<CellData>
				<DataArray type="Int32" Name="type" NumberOfComponents="1" Format="ascii">
0
0
0
0
0
0
0
0
0
0
0
0
0
0
0
0
1
0
0
1
0
0
0
0
0
0
0
0
0
0
0
0
0
1
0
0
0
0
0
0
0
0
0
0
0
0
0
0
0
0
1
0
0
0
0
0
0
0
0
0
0
1
0
0
0
0
0
0
0
0
0
0
0
0
0
0
0
0
0
0
0
0
0
0
0
0
0
0
0
0
0
0
0
0
0
0
0
0
0
0
0
0
0
0
0
0
0
0
0
0
0
0
0
0
0
0
0
0
0
0
0
0
0
1
0
0
0
0
0
0
0
0
0
0
0
0
0
0
0
0
0
0
0
0
0
0
0
0
0
0
0
1
0
1
1
0
0
0
0
0
0
0
0
0
0
0
0
0
1
0
1
0
0
0
0
1
0
0
0
0
0
0
0
0
1
1
0
0
0
0
0
1
0
0
0
0
0
0
0
0
1
0
0
0
0
0
0
0
0
0
0
0
0
0
0
0
0
0
0
0
0
0
0
0
0
0
0
0
0
0
0
0
0
1
0
0
0
0
0
0
0
0
0
0
0
0
0
0
0
0
0
0
0
0
0
0
0
0
0
0
0
0
0
0
0
0
0
0
0
0
0
0
0
0
0
0
0
0
0
0
0
1
0
0
0
0
0
0
0
0
0
0
0
0
0
0
0
0
0
0
0
0
0
0
0
0
0
0
0
0
0
0
0
0
0
0
0
0
0
0
0
0
0
0
0
0
0
0
0
0
0
0
1
0
0
0
0
0
0
0
0
0
0
0
0
0
0
0
0
0
0
0
0
0
0
0
0
0
0
0
0
0
0
0
0
0
0
0
0
0
0
0
0
0
0
0
0
0
0
0
0
0
0
0
0
0
0
0
0
0
1
0
0
0
0
0
0
0
0
0
0
0
0
0
0
0
0
0
0
0
0
0
0
0
0
0
0
0
0
0
0
0
0
0
0
0
0
0
0
0
0
0
0
0
0
0
0
0
0
0
0
0
0
0
0
0
0
0
0
0
0
0
0
0
0
0
0
0
0
0
0
0
0
0
0
0
0
0
0
0
0
0
0
0
0
0
0
0
0
0
0
0
0
0
0
0
0
0
0
0
0
0
0
0
0
0
0
0
0
0
0
0
0
0
0
0
0
0
0
0
0
0
0
0
0
0
0
0
0
0
0
0
0
1
0
0
0
0
0
0
0
0
0
0
0
0
0
0
0
0
0
0
0
1
0
0
0
0
0
0
0
0
0
0
0
0
0
0
0
0
0
0
0
0
0
0
0
0
0
0
0
0
0
0
0
0
0
0
0
0
0
0
0
0
0
0
0
0
0
0
0
0
0
0
0
0
0
1
0
0
0
0
0
0
0
0
0
0
0
0
0
0
0
0
0
0
0
0
0
0
0
1
0
0
0
0
0
0
0
0
0
0
0
0
0
0
0
0
0
0
0
1
0
0
0
1
0
0
0
0
0
0
0
0
0
0
0
0
0
0
0
0
0
0
0
0
0
0
0
0
0
1
0
0
0
0
0
0
0
1
0
0
0
0
0
0
0
0
0
0
0
0
0
0
0
0
0
0
0
0
0
0
0
0
0
0
1
0
0
0
0
0
0
0
1
0
0
0
0
0
0
1
0
0
0
0
0
0
0
0
0
0
0
0
0
0
0
0
0
0
0
0
0
0
0
0
0
0
0
0
0
0
0
0
0
0
0
0
0
0
1
0
0
0
0
0
1
0
0
0
0
0
0
0
1
0
0
0
0
0
0
0
0
0
0
0
0
0
1
0
0
0
0
0
0
0
0
0
0
0
0
0
0
0
0
0
0
0
0
0
0
0
0
0
0
0
0
0
0
0
0
0
0
0
0
0
0
0
0
0
0
0
0
0
0
0
0
0
0
0
0
0
1
0
0
0
0
0
0
0
0
0
0
0
0
0
0
0
0
0
0
0
1
0
0
0
0
0
0
0
0
0
1
0
0
0
0
0
0
0
0
0
0
0
0
0
0
0
0
0
0
0
0
0
0
0
0
0
0
0
0
0
1
0
1
0
0
0
0
0
0
0
0
0
0
0
0
0
0
0
0
0
0
0
0
0
0
0
0
0
0
0
1
0
0
0
1
0
0
0
0
0
0
0
0
0
0
0
0
0
0
0
0
0
0
0
0
0
0
0
0
0
0
0
0
1
0
0
0
0
0
0
0
0
0
0
0
0
0
0
0
0
0
0
0
0
0
0
0
0
0
1
0
0
0
0
0
0
0
0
0
0
0
0
0
0
0
0
0
0
0
0
0
0
0
1
0
0
0
0
0
0
1
0
0
0
0
0
0
0
0
0
0
0
1
0
0
0
0
0
0
0
0
0
0
0
0
0
0
0
0
0
0
0
0
1
0
0
0
0
0
0
0
0
0
0
0
1
0
0
0
0
0
0
0
0
0
0
0
0
0
0
0
0
0
0
0
0
0
1
0
0
0
0
0
0
0
0
0
1
1
0
1
0
1
0
0
0
0
0
0
0
0
0
0
0
1
0
0
0
0
0
1
1
0
0
0
0
0
0
1
0
0
0
0
0
1
1
1
0
0
0
0
0
0
0
0
0
0
0
0
1
1
0
0
1
0
0
0
0
0
1
0
0
0
1
0
1
0
0
0
0
0
0
0
1
0
0
0
0
0
0
0
1
0
0
1
0
0
0
0
0
0
0
0
0
0
0
0
0
0
0
1
0
0
0
0
0
0
0
0
0
0
0
0
0
0
0
0
0
0
0
0
0
0
0
0
0
0
0
0
0
0
0
0
0
0
0
0
1
0
0
0
0
0
0
1
0
0
0
1
0
0
0
0
0
0
0
0
0
0
0
1
0
0
0
0
0
0
0
0
0
0
0
0
0
0
0
0
0
0
0
0
0
0
0
0
0
0
0
0
0
0
0
0
0
0
0
0
0
0
0
0
1
1
0
0
0
0
0
0
0
0
0
0
0
0
0
1
0
0
0
0
0
0
0
0
0
0
0
0
0
0
0
0
0
0
0
0
0
0
0
0
0
0
0
0
0
0
0
0
0
0
0
0
0
0
0
0
0
0
0
0
0
0
0
0
0
0
0
0
0
0
0
0
0
0
0
0
0
0
0
0
0
0
0
0
0
0
0
0
1
1
0
0
0
0
0
0
0
0
1
0
0
0
0
0
0
0
0
0
0
0
0
0
0
0
0
0
0
0
0
0
0
0
1
0
0
0
0
0
0
0
0
0
0
0
0
0
0
0
0
1
0
0
0
0
0
0
0
0
0
0
0
0
0
0
0
0
0
0
0
0
0
0
0
0
0
0
0
0
0
0
0
0
0
0
0
0
0
0
0
0
0
0
0
0
0
0
0
0
0
0
0
0
0
0
0
0
0
0
0
0
0
0
0
0
0
0
0
0
0
0
0
0
0
0
0
0
0
0
0
0
0
0
0
0
0
0
0
0
0
0
1
1
0
0
0
0
0
1
0
0
0
0
0
0
0
0
0
0
0
0
1
0
0
0
0
0
0
0
0
0
0
0
0
0
0
0
0
0
0
0
0
0
0
0
0
0
0
0
0
0
0
0
0
0
0
0
0
0
0
0
0
0
0
0
0
0
0
0
0
0
0
0
0
0
1
0
1
0
0
0
0
0
0
0
0
0
0
0
0
0
0
0
0
0
0
1
0
0
0
0
0
0
0
0
0
0
0
0
0
0
0
0
0
0
0
0
0
0
0
0
0
0
0
0
0
0
0
0
0
0
0
0
0
0
0
0
0
0
0
0
0
0
0
0
0
0
0
0
0
0
0
0
0
0
0
0
0
0
0
0
0
0
0
0
0
0
1
0
0
0
0
0
0
0
0
0
0
1
0
0
0
0
0
0
0
0
0
0
0
0
0
0
0
0
0
0
0
0
0
0
0
0
0
0
0
0
0
0
0
0
0
0
0
0
0
1
0
0
0
0
0
0
0
0
0
0
0
0
0
0
0
0
0
0
0
0
0
0
0
0
0
0
0
0
0
0
0
0
0
0
0
0
0
0
0
0
0
0
0
0
0
0
0
0
0
0
0
0
0
0
0
0
0
0
0
0
0
0
0
0
0
0
0
0
0
0
0
0
0
0
0
0
0
0
0
0
0
1
0
0
0
0
0
0
0
0
0
0
0
0
0
0
0
0
0
0
0
0
0
0
0
0
0
0
0
0
0
0
0
0
0
0
0
0
0
0
0
0
0
0
0
0
0
0
0
0
0
0
0
0
0
0
0
0
0
0
0
0
0
0
0
0
0
0
0
0
0
0
0
0
0
0
0
0
0
0
0
0
0
0
0
0
0
0
0
0
0
0
0
0
0
0
0
0
0
0
0
0
0
0
0
0
0
0
0
0
0
0
0
0
0
0
0
0
0
0
0
0
0
0
0
1
0
0
0
0
0
0
0
0
0
0
0
0
0
0
0
0
0
0
0
0
0
0
0
0
0
0
0
0
0
0
0
0
0
0
0
0
0
0
0
0
0
0
0
0
0
0
0
0
0
0
0
0
0
0
0
0
0
0
0
0
0
0
0
0
0
0
0
0
0
0
0
0
0
0
0
0
0
0
0
0
0
1
0
0
0
0
0
0
0
1
0
0
0
0
0
0
0
0
0
0
0
0
0
0
0
0
0
0
0
0
0
0
0
0
0
0
0
0
0
0
0
0
0
0
0
0
0
1
0
0
0
0
0
0
0
0
0
0
0
0
0
0
0
0
0
0
0
0
0
1
0
0
0
0
0
0
0
0
0
0
0
0
1
1
0
0
0
0
0
0
0
0
0
0
0
0
0
0
0
1
1
0
1
0
0
0
0
0
0
0
0
0
1
0
0
0
0
0
0
1
0
0
0
0
0
0
0
0
0
0
1
0
0
0
0
1
0
1
0
0
0
0
0
0
0
1
0
0
0
1
0
0
0
1
0
1
1
0
0
1
1
0
0
0
1
0
0
0
1
0
0
0
0
0
0
0
0
0
1
0
0
0
0
0
0
1
0
0
0
0
0
0
0
0
0
0
0
0
0
0
0
0
0
0
0
0
0
0
0
0
0
0
0
1
0
0
1
0
0
0
0
0
0
0
0
0
0
0
0
0
0
0
0
0
0
1
0
0
1
0
0
0
0
0
0
0
0
0
0
0
1
0
0
1
0
0
0
0
0
0
0
0
0
0
0
1
1
0
0
0
0
0
0
0
0
0
0
0
0
1
0
0
0
0
0
0
0
0
0
0
0
0
0
0
0
0
0
1
0
0
0
0
0
0
0
0
0
0
0
0
0
0
0
0
0
1
0
0
0
0
0
0
0
0
0
0
0
0
0
0
0
0
0
0
0
0
0
0
0
0
0
0
0
0
0
0
0
0
0
0
0
0
0
0
0
0
1
0
0
0
0
0
0
0
0
0
0
0
0
0
0
0
0
0
0
0
0
0
0
0
0
0
0
0
0
0
0
0
0
0
0
0
0
0
0
0
0
0
0
0
0
0
1
0
0
0
0
0
0
0
0
0
0
0
0
0
0
0
0
0
0
0
0
0
0
0
0
0
0
0
0
0
0
0
0
0
0
0
0
0
0
0
0
0
0
0
0
0
0
0
1
0
0
0
0
0
0
0
0
0
0
1
0
0
0
0
0
0
0
0
0
0
0
0
0
0
0
1
0
0
1
0
0
0
0
0
0
0
0
0
0
0
0
0
0
0
0
0
0
0
0
0
0
0
1
0
0
0
0
0
0
0
0
0
0
0
0
0
0
0
0
0
0
0
0
0
0
0
0
0
0
0
0
0
0
0
0
0
0
0
1
0
0
0
0
0
0
0
0
0
0
0
0
0
0
0
0
0
0
0
0
0
0
0
0
0
0
0
0
0
0
0
0
0
0
0
0
0
0
0
0
0
0
0
0
0
0
0
0
0
0
0
0
0
0
0
0
0
0
0
0
0
0
0
0
0
0
0
0
0
0
0
0
0
0
0
0
1
0
0
0
0
0
0
0
0
0
0
0
0
0
0
0
0
0
0
0
0
0
0
0
0
0
0
0
0
0
0
0
0
0
0
0
0
0
0
0
1
0
0
0
0
0
0
0
0
0
0
0
0
1
1
0
0
0
0
0
0
0
0
0
0
0
0
0
0
0
0
0
0
0
0
0
0
0
0
0
0
0
0
0
0
0
0
0
0
0
0
0
0
0
0
0
0
0
0
0
0
0
0
0
0
0
0
0
0
0
0
0
0
0
0
0
0
0
0
0
0
0
0
0
0
0
0
0
0
0
0
0
0
0
0
0
0
0
0
0
0
0
0
0
0
0
0
0
0
0
0
0
0
0
0
0
1
0
1
0
0
0
0
0
0
0
1
1
1
1
0
0
0
0
0
0
0
0
0
0
0
0
0
0
0
0
0
0
0
0
0
0
0
0
0
0
0
0
1
1
0
0
0
0
0
0
0
0
0
0
0
0
0
0
0
0
0
0
1
0
0
0
0
0
0
0
1
1
0
1
1
0
0
1
0
0
0
0
0
0
0
1
0
1
0
0
0
0
0
0
0
0
0
0
0
0
0
0
0
0
0
0
0
0
0
0
0
0
0
0
0
1
1
0
0
0
1
1
0
0
0
0
1
0
0
1
0
1
0
0
0
0
0
1
0
0
0
1
0
0
0
0
0
0
0
0
0
0
0
0
0
0
0
0
0
0
0
0
0
0
0
0
0
0
0
1
0
0
0
0
0
0
1
0
0
0
0
0
0
0
0
0
0
0
0
0
0
0
0
0
0
0
0
0
0
0
0
0
0
0
0
0
1
0
1
0
0
0
0
0
0
0
1
0
0
0
0
0
0
0
0
0
0
0
1
0
0
0
0
0
0
0
0
0
1
0
0
0
0
0
0
0
1
0
0
0
0
0
0
0
1
0
0
0
0
0
0
0
0
0
0
0
0
0
0
0
0
0
0
0
1
0
1
0
0
0
0
0
1
0
0
0
0
0
0
0
0
0
0
0
0
0
0
0
0
0
0
0
0
0
0
0
0
0
1
0
1
0
0
0
0
0
0
0
0
0
1
0
0
0
0
0
1
0
0
0
0
0
0
0
0
0
0
0
0
0
0
0
1
0
0
0
0
0
0
0
0
1
0
0
0
0
0
0
0
0
0
0
0
0
0
0
0
0
0
0
0
0
0
0
0
0
0
0
0
0
0
0
1
0
0
0
0
0
0
0
0
0
0
0
0
0
0
0
0
1
0
0
0
0
0
0
0
0
1
0
0
0
0
0
0
0
0
0
1
0
0
0
0
0
1
0
0
0
0
0
0
0
0
0
0
0
0
0
0
0
0
0
0
0
1
0
0
0
0
0
0
1
0
0
0
0
0
0
0
0
1
0
0
0
0
0
0
0
0
0
0
0
0
0
0
1
0
0
1
0
0
0
1
0
0
0
0
0
0
0
0
0
0
0
0
0
0
0
0
1
0
0
0
0
0
0
0
0
0
0
1
0
1
0
0
0
0
0
0
1
0
0
0
0
0
0
0
0
0
0
0
0
0
0
0
0
0
0
0
0
0
0
0
0
0
0
0
1
1
0
0
0
0
0
0
1
0
0
0
0
0
0
0
0
0
0
0
0
0
1
0
0
0
0
0
0
0
1
0
0
0
0
0
0
0
0
0
0
0
0
0
0
0
0
0
0
0
0
0
0
0
0
0
0
0
1
0
0
0
0
0
0
0
0
0
0
1
0
0
1
0
0
0
0
0
0
0
0
0
0
0
0
0
0
0
0
0
0
0
0
0
0
0
0
0
0
0
0
0
1
0
0
0
0
0
0
0
1
0
0
0
0
0
0
0
1
0
0
0
0
1
0
0
0
0
0
0
0
0
0
0
0
1
0
1
0
0
0
1
0
				</DataArray>
				<DataArray type="Float64" Name="h" NumberOfComponents="1" Format="ascii">
0.8065121860
0.8064781919
0.8199653892
0.8033965016
0.8239907207
0.8187714007
0.8119824938
0.7976505856
0.8099089596
0.7874840625
0.7989193997
0.8138101863
0.7971814386
0.7936872908
0.7988876744
0.7868636602
0.8061909787
0.7897704295
0.8015405647
0.7953817137
0.8263510641
0.7973889007
0.8098569227
0.8328819118
0.8007843425
0.7865691399
0.7985835242
0.8301803712
0.8213000958
0.7893033103
0.7910009050
0.8153248882
0.7934776490
0.8199263139
0.8684599327
0.8352006026
0.8440423051
0.8071575815
0.8204433516
0.8346397087
0.8265593109
0.8471298027
0.8040713672
0.8190952910
0.8394184889
0.8286618426
0.8139382128
0.8794490434
0.9272909120
0.9094754826
0.8368806994
0.8339420280
0.8261124811
0.8821238281
0.8511025193
0.7998032673
0.8377122611
0.9034425228
0.9081458960
0.8907214566
0.9342575062
0.9273194750
0.9306811133
0.8407767032
0.8215332982
0.8390175377
0.8878407237
0.9125579750
0.9232257513
0.9139100853
0.9105649289
0.8598929054
0.8018881471
0.8941143267
0.9032254980
0.7976376438
0.9037328631
0.9260762812
0.8933119619
0.8113805681
0.9468851976
0.8481582352
0.9522822389
0.8903886050
0.8010575884
0.8111793411
0.9495265312
0.8639218075
0.9226585010
0.9439017746
0.9457364319
0.8079212996
0.9360500235
0.9295362797
0.8312162742
0.8240457871
0.8350686186
0.8079569490
0.8217235065
0.9476858873
0.9468389857
0.9472606303
0.8560175952
0.8898291777
0.7793402334
0.8647567513
0.8101887703
0.9373872488
0.9229770900
0.8452619016
0.9180110027
0.9350206738
0.9374766173
0.9392091605
0.8810147069
0.9567677499
0.8688565952
0.7841192390
0.9474513872
0.9039492188
0.7806941679
0.8503657911
0.7932987128
0.7754889897
0.9300257798
0.9415595662
0.8920327595
0.7745625419
0.9592020877
0.9539502962
0.9535696887
0.8258952881
0.9127958291
0.9616411769
0.7817740863
0.9511506476
0.7806308321
0.9593347646
0.9565319232
0.7872787623
0.7744141467
0.7775986024
0.9553286472
0.7916449371
0.8058761106
0.9538298955
0.7834142517
0.9554587924
0.7768202629
0.9539141462
0.7778418137
0.9615034599
0.9583991455
0.9539778329
0.9553017490
0.9571766815
0.9579184287
0.7765772152
0.9544789619
0.7708838151
0.7897220905
0.9567049520
0.7809611728
0.7722738953
0.7755988217
0.9539473632
0.7944438992
0.7860111386
0.7726946651
0.9553192877
0.9593320473
0.7711206348
0.9550245288
0.7762673235
0.7941752594
0.9518001206
0.7928631433
0.9555441502
0.9534359185
0.7722104491
0.9561974909
0.7928338698
0.7704048332
0.7866199960
0.7690997053
0.7714901639
0.7950316960
0.9530911009
0.7725186746
0.7725857872
0.7892274821
0.9540675933
0.7700845663
0.7930064462
0.9523351495
0.9555337890
0.7732863993
0.7837132169
0.7888948726
0.9529554926
0.7719931472
0.7892384353
0.7717647891
0.9528493785
0.7766830128
0.7699353629
0.7841186639
0.7770245329
0.7827625273
0.7890941459
0.7839557737
0.7711291323
0.7719106518
0.7712004150
0.7804012023
0.7777673559
0.7867100827
0.7714341277
0.7879917579
0.7696845861
0.7761852685
0.9273623477
0.7896996706
0.8810386080
0.7818350573
0.9559102601
0.9523680119
0.8281135219
0.7695253607
0.9428725314
0.9538128080
0.9063461324
0.8023453876
0.9539845482
0.9568736624
0.8543935712
0.7797717695
0.7839109717
0.7708048536
0.7862951827
0.7767963772
0.7777332313
0.7708268574
0.7891673022
0.7782184158
0.7854854381
0.7713703076
0.7852049341
0.7809359592
0.7729359712
0.7854376495
0.7820856670
0.7732384228
0.7725897876
0.7697397339
0.7721799600
0.7879254400
0.7819603809
0.7712234241
0.8959717039
0.7852798574
0.7646698322
0.8038354762
0.8636209035
0.7865976952
0.9570680201
0.9583710159
0.7628859953
0.9547303651
0.9177595355
0.9508701178
0.7883483423
0.9385120104
0.8389126265
0.8674649018
0.7582230486
0.7799705662
0.8325491026
0.8925964954
0.7705606528
0.9504270099
0.9561649906
0.9562206191
0.9592966918
0.9377902950
0.9200025580
0.8107245660
0.7836027175
0.7724076707
0.7723268343
0.7845738142
0.7728924631
0.7787392430
0.7790866329
0.7845150784
0.7730731212
0.7856278018
0.7814290257
0.7743616821
0.7722002910
0.7735225305
0.7820994297
0.7790406422
0.7665709318
0.7654083895
0.7847156738
0.7785674767
0.7858526811
0.7740135975
0.7552464356
0.8151854153
0.7837485936
0.9568768530
0.7564842352
0.9482221338
0.8795988655
0.7825214894
0.9315662075
0.9615938754
0.7834215814
0.8440239387
0.7680838001
0.9063773923
0.9592437782
0.7645658728
0.7876865275
0.8118832082
0.9585427372
0.8467680223
0.9083101909
0.9477033950
0.9615760216
0.9585811417
0.7547063791
0.8767587961
0.7579781539
0.9307427268
0.7837957721
0.9684000783
0.7837573806
0.7734524025
0.7831404361
0.7742908177
0.7699913093
0.7799616331
0.7837888178
0.7798795256
0.7744834052
0.9464608189
0.7922327813
0.7692407574
0.8312196985
0.7822238043
0.7752123425
0.9665557611
0.7844035658
0.8149830388
0.7779286407
0.7842023220
0.8730882796
0.8925641367
0.9675758181
0.7735362983
0.7756919049
0.7642956621
0.7821980033
0.8100953613
0.8145628399
0.7928115602
0.7749524968
0.8235593573
0.9223108529
0.7757042461
0.9641301806
0.8613899215
0.8260976497
0.9608432759
0.7842910593
0.9436098926
0.7560958805
0.7582423189
0.9223254982
0.9591365232
0.7815695571
0.8933050934
0.7802611291
0.7579538863
0.7949102324
0.7721251978
0.8095405936
0.9607427030
0.7608972054
0.8260594641
0.8420353033
0.9632368810
0.8603253324
0.7866870906
0.7965006621
0.8010248232
0.8268260225
0.7589318586
0.9432459538
0.8197114545
0.8942218758
0.8341633649
0.9608783600
0.9219273572
0.7544030776
0.7712172156
0.8143168836
0.7952625438
0.7999263429
0.8661143844
0.8181853372
0.7839255276
0.9613389384
0.9285840158
0.7827311389
0.8604110873
0.7706571015
0.8304635151
0.8212008145
0.7809411021
0.9226462753
0.9700077596
0.8033646970
0.9643926364
0.7750714737
0.8936176584
0.7726679041
0.7892727662
0.9783010231
0.8407731116
0.9468928818
0.8162866118
0.8072884378
0.9468713982
0.8995843830
0.9615480181
0.8480779814
0.8452838245
0.8815143863
0.7828061727
0.9016749043
0.8605268526
0.7839844972
0.7715873284
0.8737697623
0.8319734684
0.9056894565
0.8610059508
0.9617168358
0.7749634540
0.7768779155
0.7763731807
0.8212118862
0.9865056245
0.9536228399
0.8458339825
0.9835519864
0.7766374664
0.7700206749
0.7855024052
0.9604551676
0.7800526334
0.8440821909
0.7814473965
0.7588835337
0.8421121592
0.7826247911
0.9616866157
0.7850329544
0.9109937502
0.7818738023
0.7691110866
0.7825209140
1.0069311439
0.8226371214
0.7767785743
0.7851338218
0.7884308603
0.7831702285
0.7843742832
0.9627762501
0.9888845133
0.9859865881
0.9365532075
0.7922725269
0.8094848993
0.8057396415
0.8834201851
0.7608132990
1.0230674852
0.7784747026
0.7867128716
0.8051606841
0.7857437791
1.0199537240
0.8790520674
0.7941099673
0.9467311174
0.9468279732
0.8169366771
0.8010389345
0.8268378236
0.7836103689
0.7652262626
0.7764967855
0.7888135338
0.9113110242
0.7922585931
0.7814219074
0.9118407884
0.7850482531
0.8595369678
0.7767862801
0.8900299502
0.8457356895
0.7783085676
0.7895463607
0.7814473692
0.8450775651
0.8679659917
0.9690873754
0.7879908146
0.9235780041
0.7997605307
0.8773475803
0.8526873000
0.7908390357
0.8805828844
0.7855191641
0.8506553958
0.7841609266
0.7826447553
0.8562035893
0.7784832980
0.7857609914
0.7765059098
0.8526942897
0.7832009418
0.8498542889
0.8228536515
0.7768812290
0.8367113641
0.7891024651
0.7911223312
0.7818925519
0.8433495428
0.8161208238
0.9892536188
0.8293479786
0.7862796062
0.8642670006
0.7798913595
0.8663118182
0.7940349262
0.8090170490
0.9299575752
0.9706048842
0.7896703577
0.8012275317
0.9536492376
0.7843902909
0.8611101089
0.8996900489
0.7836250742
0.7814853982
0.9269048641
0.9617567006
0.7895911696
0.8967223365
0.9317954958
0.9056841071
0.7706767271
0.7809734582
0.7875218609
0.8711001552
0.9118355125
0.8025917433
0.7954367865
0.8320121105
0.9467291754
0.8062818737
0.8909942892
0.7879650999
0.9615668891
0.8662397475
0.7715987643
0.8300565271
0.9644498524
0.8624993679
0.8115906035
0.8664369312
0.8371166948
0.7769059753
0.8069548318
0.7790247967
1.0222636905
0.8286577992
0.8466614846
0.7996771137
0.9992218410
0.7931939964
0.8033849728
0.8421824869
0.8589038797
0.9867158006
0.9286435936
0.8076774560
0.8538053064
0.7852870219
0.9686849642
0.8221622755
0.8711020326
0.7906706760
0.9382924171
0.7841816789
0.7896045381
0.7908569363
0.7880066726
0.9849697686
0.8701635088
0.7829145764
0.7783171625
0.7974843679
0.8230816547
1.0278227100
0.7799005628
0.8426147730
0.8589052790
0.8301687432
0.8481724165
0.7940556394
0.7895611986
0.7896850391
0.7862953123
0.9961584294
1.0422736218
0.9671380364
0.9163133401
0.7768904509
0.8569019734
0.8638201473
0.8086150610
1.0184119521
0.9533424107
0.8642712932
0.8482392751
1.0040707106
0.8262708479
0.7982710798
0.7816433274
0.7899091513
0.8241220465
0.8042025830
0.8151762516
0.7891191231
0.9801122184
0.7956436584
0.7805067268
0.7869416957
0.9538644408
1.0121394796
1.0538274581
0.9643563521
0.8152561734
0.8009796941
0.7841361867
0.7928585563
1.0444399961
1.0573486739
0.8562105237
0.8530970198
0.8594326108
0.8365560498
1.0061867667
0.8360391780
0.8416768701
1.0865850453
1.0729593445
0.8362825549
0.8413471515
1.0231335943
0.8437182922
0.8463296081
0.8316013170
1.0511325207
1.0791983738
1.0685720220
0.8371945538
0.8301057726
0.8259299439
0.8280545423
0.8347414082
1.0430982214
1.0678442195
0.9810851019
1.0135460027
0.8212523930
1.0860772547
1.0967982160
0.8206499227
1.0422684479
1.0125031198
0.8076853762
1.1013900193
0.8293595757
1.0683893975
0.8132255153
0.8207153668
1.1010517262
0.8221715983
1.0915292416
1.0739724030
0.8012364239
1.0578372174
0.8017668266
0.8017250264
1.0397541487
1.0433744652
0.7891870362
0.8095165461
0.8129214906
0.8128903363
0.8094654973
0.8097604806
0.8138125705
0.7989187163
0.8027662564
0.8210182017
0.8187967455
0.8239610216
0.8209667403
0.8098845076
0.7989008874
0.8119945534
0.7918407714
0.8027610983
0.8097535799
0.7966969090
0.7897617778
0.8034017299
0.8199526003
0.8015855887
0.7892896547
0.7896345159
0.8125272943
0.7976454067
0.7865509553
0.8007724212
0.7875000703
0.7956159825
0.7971668914
0.8271397874
0.7907130456
0.8058421779
0.7918487856
0.7909831051
0.7966913131
0.8199194518
0.7934813057
0.8154018123
0.7958954866
0.8346567288
0.8156285036
0.8062070183
0.7868786487
0.8041280524
0.8205293503
0.8125295004
0.7896431738
0.8266240284
0.7936986422
0.7954039454
0.8271288766
0.8097659580
0.8814569112
0.7973661324
0.8450923526
0.7956027660
0.8263463854
0.8057857002
0.8009822958
0.8393700890
0.8794504983
0.7907227286
0.8394486954
0.8368783911
0.8140442317
0.8300667007
0.8328541269
0.8211992945
0.8374416483
0.8117721323
0.7985693525
0.8534126356
0.7881500144
0.8155759261
0.8561570885
0.8648239847
0.7958933971
0.8262274713
0.8814558514
0.9212385453
0.9204253979
0.8009351995
0.8450817491
0.8517131071
0.8392653260
0.8351449958
0.8216351846
0.8070801877
0.8720951854
0.8684569152
0.9308839774
0.9125677915
0.8493846467
0.8440367298
0.8408436452
0.8561052672
0.8947697266
0.8953707637
0.8189675877
0.8941375017
0.8823760361
0.8599204047
0.8019134498
0.9159140366
0.8028451900
0.8117978732
0.8533996016
0.9332344637
0.8648220281
0.8470593311
0.9037264348
0.9105614134
0.9028227473
0.9032317933
0.8117165799
0.8091118890
0.9232219428
0.8570163357
0.7881652660
0.9139088806
0.8516895480
0.8720866485
0.8268753984
0.8493004695
0.9010272171
0.8767596253
0.8999731395
0.9272589942
0.8334840665
0.9204115873
0.8285653054
0.8482271276
0.8903749984
0.8602747420
0.9212242171
0.9094633747
0.9342555333
0.9273148204
0.8090543475
0.9390520885
0.9028009681
0.9081507330
0.8895516627
0.8823504000
0.7966151294
0.8014360316
0.8947766504
0.8570163518
0.8679178745
0.8510551738
0.9220039629
0.9159155563
0.9332341675
0.7997856565
0.8600734692
0.9088992833
0.8028323432
0.8820792796
0.8953739931
0.8907105303
0.8079028783
0.9034483752
0.8117274844
0.9360571184
0.9010005846
0.8898283606
0.8217917035
0.8602277594
0.7994393295
0.8767457641
0.9472663026
0.8768484777
0.9411051870
0.8779103578
0.8389311434
0.9468964811
0.8878596267
0.8800713267
0.8079583121
0.9440331141
0.8240834885
0.8701712246
0.9000079355
0.9476988849
0.8646948673
0.8268224820
0.9533266074
0.8600099846
0.9229778983
0.9350478716
0.9390515675
0.9088970724
0.9374896161
0.8678923924
0.7976966697
0.9097469102
0.8895499393
0.9260764241
0.8014174418
0.9474830275
0.7966671816
0.9179931694
0.8453367935
0.9220073053
0.9410989632
0.9532703405
0.8714213561
0.9440255386
0.8112073157
0.8504011312
0.9147382077
0.8800700202
0.7842265899
0.8701405080
0.8778815423
0.8010982354
0.8113876772
0.9495184856
0.9522113531
0.9468756386
0.8689317619
0.8933144572
0.8769254021
0.7806716961
0.8639620026
0.7994651796
0.9474665193
0.8258930110
0.8966082144
0.7812343222
0.9416079271
0.9324838668
0.9424408057
0.9226410410
0.8312042114
0.9295394270
0.9522402211
0.9438478584
0.9457164287
0.9443424826
0.9051586003
0.9300458396
0.8920580690
0.9098297205
0.9539766111
0.8559653469
0.9503951197
0.8852432002
0.8713515121
0.7842502200
0.9147205032
0.9356024774
0.7817532525
0.9511797784
0.9128215848
0.7793657868
0.8351161938
0.8058344656
0.8736328143
0.7775782637
0.9235890439
0.7812622387
0.9522046281
0.9391838609
0.9373386099
0.7813198920
0.9051550909
0.9424194853
0.8809735320
0.7768006063
0.8966720178
0.9553492631
0.7740973791
0.9567437870
0.9324655813
0.9538517077
0.9443059883
0.8102467755
0.7789871476
0.7920190850
0.8607798429
0.9600213956
0.9503533687
0.9357499464
0.7768388666
0.9597789369
0.9482803113
0.9556457858
0.9039285245
0.8854072031
0.9615201716
0.7841382835
0.9558302732
0.9474202970
0.7853554064
0.7778092916
0.9584156700
0.9553143911
0.7813539327
0.7741152521
0.7859931379
0.7755770379
0.9235753773
0.9552674972
0.7790072032
0.7734222720
0.9545364282
0.8516291813
0.8737420782
0.7755071203
0.9591853380
0.7897085493
0.7773274200
0.7933672699
0.9535483419
0.7831660817
0.7809336925
0.9592620230
0.9567199600
0.7745817050
0.9544864446
0.9556303379
0.7806666904
0.9616229322
0.9569954880
0.8376483203
0.9482213227
0.9580268352
0.9593146591
0.9550329522
0.7867589232
0.7784975845
0.9565197490
0.7853738593
0.8609940368
0.7768687498
0.9600057594
0.7920839724
0.9558148774
0.9553375138
0.9608628808
0.9597601702
0.9593447490
0.7762443560
0.9539069965
0.7703861063
0.8294755134
0.7773493694
0.7734417844
0.9538429330
0.9565299200
0.9541802438
0.7916501450
0.9554409217
0.7834347077
0.7721905640
0.9545288541
0.7831876766
0.8517677081
0.7713791574
0.7744360254
0.9562253730
0.9592431655
0.7928551424
0.9614007684
0.7872934434
0.9552540017
0.7718785157
0.7725011322
0.9571513319
0.9579075305
0.7785250187
0.8097427600
0.9569797381
0.7801078222
0.7867818431
0.8377787971
0.7690827602
0.9580026626
0.9539683219
0.7765983334
0.9608468082
0.7950280193
0.8037930641
0.9523398836
0.7944414334
0.7718980893
0.9537967911
0.9555655736
0.7713980318
0.9541736212
0.9613843102
0.9552854083
0.7707419648
0.9565171053
0.8295535724
0.7714607627
0.9540731437
0.9628770730
0.7722934816
0.9539122174
0.7929742439
0.9549111913
0.7709024877
0.7891532114
0.9518700609
0.7711383628
0.7717467224
0.7941870693
0.9528511701
0.8098501305
0.7727113969
0.7719735815
0.7801298561
0.7888426865
0.9519967567
0.9534313880
0.7740829856
0.7707602861
0.7714800357
0.7711103702
0.9548989931
0.9552616307
0.7704683531
0.9554000487
0.7928631125
0.9628590233
0.9517953305
0.8038798638
0.7711345397
0.7709666077
0.9555273282
0.7718885608
0.7827044164
0.7892745013
0.9538144092
0.9518657465
0.7726054996
0.9519929446
0.9532471391
0.9524494779
0.7866926762
0.7715073084
0.9530878622
0.7761352426
0.7713472255
0.7854675463
0.7747363215
0.7781950563
0.7837650625
0.7709864604
0.7701795853
0.7705898575
0.7891464815
0.7740884302
0.7741042016
0.7797339093
0.7701034970
0.7703108272
0.9553558510
0.7733098076
0.7703067226
0.7819395737
0.7752547672
0.7725567447
0.7879068104
0.7732142809
0.7851682348
0.7711552711
0.7707828076
0.7704879160
0.9542465843
0.7646233383
0.7767280235
0.9532464491
0.9199100171
0.7883196994
0.9524451681
0.8671673972
0.7705040310
0.9562326742
0.9504826254
0.9565164879
0.8105460740
0.7628452739
0.9385183901
0.9529514719
0.8957511240
0.7864741919
0.9547352957
0.9561533385
0.9570970909
0.8386531410
0.7839945714
0.7845559870
0.7750609777
0.7697042352
0.7856044989
0.7728672636
0.7741139285
0.7702166544
0.7747631682
0.7707131506
0.7624106585
0.7790683916
0.7723896384
0.7706093497
0.7891079878
0.7770516948
0.7841370777
0.7699566302
0.7880186355
0.7820819039
0.7739956849
0.7703313765
0.7858321950
0.7790144216
0.7714573975
0.7778100268
0.7653802559
0.7762111439
0.7709496897
0.7867267461
0.7752799761
0.7804257340
0.7703283073
0.9064641123
0.7833957225
0.7586213288
0.7579436865
0.7875193403
0.8464215725
0.8025003894
0.9561021729
0.9568499724
0.9585529215
0.7695796222
0.9539802948
0.9575745354
0.9081135902
0.9477244088
0.7897164358
0.9542440836
0.9428465640
0.8546291937
0.8812378067
0.7564483764
0.7680112326
0.8149236455
0.8792791547
0.7819355001
0.9523116996
0.9564716185
0.9568830620
0.7646569821
0.9559037278
0.9592469074
0.9315059386
0.9564982683
0.9273978836
0.8283030434
0.7837781476
0.7761935104
0.7708469370
0.7707341347
0.7742803789
0.7839284037
0.7768276086
0.7608669796
0.7798620363
0.7624456614
0.7777543724
0.7831203634
0.7699667077
0.7863122158
0.7750821111
0.7822071808
0.7752016085
0.7709711385
0.7721274609
0.7809555796
0.7821121059
0.7642617262
0.7773452492
0.7697716706
0.7762296454
0.7841823331
0.7756727353
0.7854549068
0.7729564596
0.7543693630
0.8328367790
0.7711384691
0.9561619545
0.7582570884
0.9432250818
0.8928290884
0.7802422274
0.9378116006
0.9564627651
0.9580210770
0.9608541177
0.7605589196
0.7853001555
0.8257450791
0.7801187216
0.8939682911
0.9592796608
0.7579284442
0.8040550421
0.7947016396
0.9583590524
0.7586543781
0.9558685150
0.8639234988
0.9178735434
0.9508364826
0.9608275634
0.9591258913
0.7582006739
0.8610547708
0.7647297817
0.9222006543
0.9575467805
0.9613125752
0.7892710491
0.7671425225
0.8603501965
0.7836194016
0.7762091510
0.9662709007
0.9525587787
0.7827140753
0.8081889291
0.7726406405
0.7845323072
0.8442785511
0.9225912174
0.9718939185
0.7723402999
0.7730994717
0.7609094802
0.7809220844
0.7839082410
0.7787578589
0.7999127483
0.8230574456
0.8072786368
0.7750633537
0.8106665173
0.9027303988
0.7776184920
0.9526579317
0.7824866857
0.7699812582
0.8402572402
0.7814471558
0.7743744429
0.9640053743
0.9635734535
0.7839660907
0.8057494071
0.7763545168
0.7847326812
0.8663513750
0.9044231199
0.9691043441
0.7721441615
0.7785895067
0.7666034955
0.7787022928
0.7827894596
0.7773599912
0.7987872980
0.8235362238
0.7929356046
0.7736572718
0.8232752158
0.9306236164
0.7766297642
0.8088832474
0.9627324927
0.7707845172
0.8770726957
0.8503640551
0.9573600540
0.8093612647
0.9615904394
0.7851114349
0.7884685526
0.7974803782
0.9365001323
0.8057273858
0.8364524337
0.7607770648
0.9558523077
0.7547407562
0.8187014743
0.9308177457
0.8324328290
0.9585827584
0.7800368717
0.8788339098
0.7825401048
0.7646277329
0.8121739525
0.8229004141
0.7652026870
0.8169228053
0.9604111611
0.7690692403
0.8443773646
0.8466522066
0.9616797228
0.8438942024
0.9580078759
0.7832073885
0.7849740652
0.8011842804
0.9536217203
0.8064206082
0.8351238883
0.7588593272
0.9482217277
0.7606051958
0.8286456674
0.9065727133
0.8421013575
0.9615951868
0.9108530365
0.7552758905
0.7839267385
0.8226242710
0.7829769340
0.7886472604
0.9248847584
0.8808586473
0.9551590152
0.8457378038
0.8081917877
0.8450836358
0.8678382223
0.7838052988
0.9646618836
0.8843292653
0.9375975837
0.9646410834
0.8591719397
0.7837741073
0.8728961460
0.7651834737
0.8230660933
0.7829981877
0.8107004545
0.8636631717
0.7799805821
0.9321673504
0.9719382915
0.8139068990
0.9299381555
0.8727709223
0.8805639676
0.9665772058
0.7744929683
0.7766248171
0.9028110953
0.7734773628
0.8101087742
0.8304584747
0.9892034560
0.9705690140
0.7829959898
0.8506624485
0.9776676795
0.8442382267
0.9525934911
0.9692165290
0.7776315264
0.7671874156
0.8106612609
0.8119188719
0.9699602875
0.7922451970
0.9487153025
0.9121393445
0.8935559374
0.9642047889
0.8441133272
0.8145688344
0.8370110527
0.8729176196
0.7822160890
0.9663321206
0.9031927270
0.9498242794
0.8618839449
0.7844207425
0.8926590428
0.7711987047
0.8324406178
0.8324332796
0.8658674525
0.7787169531
0.9464972486
0.9665903869
0.8466712132
0.9096195886
0.8597410693
0.9633324694
0.7736701397
0.7678030421
0.8162953477
0.8731006661
0.7779474942
0.8107157138
0.9849175537
0.9576816129
0.7928177472
0.8365121695
0.9743895317
0.8232805838
0.9306700521
0.9829360804
0.7757125202
0.7692756362
0.8057408143
0.8311946604
0.7850635425
0.9607683219
0.9686799290
0.9992027526
0.9536287839
0.7815860811
0.7884538116
0.8605948863
0.8064346817
0.8967282975
0.7878169154
0.7589535093
0.8341738816
1.0222377746
0.7794502915
0.7884934413
0.7816461514
0.9632505177
0.8169905940
0.7852046869
1.0040575827
0.9220440713
0.7962249547
0.9316451309
0.9665824434
0.8088965807
0.7965114806
0.8249283386
0.8249397802
0.7813374377
0.7609388657
0.7954320122
1.0043462685
0.8143304396
0.8434809228
0.7761518490
0.7843078286
0.7874959819
0.8964555191
0.7919519261
0.7994024936
0.7786659354
0.7895932395
0.9197123916
0.7836447010
0.9641743237
0.9867072785
0.9853988214
0.9436397855
0.7899734159
0.8263387546
0.8011950750
0.8841263156
0.7561260005
0.8434918639
1.0183758885
0.7775362730
0.7849965798
0.7805301528
0.9573581555
0.8115759018
0.7856536180
1.0169743579
0.8935231478
0.7919715000
0.9408674245
0.9450653844
0.8095552082
0.7974934899
0.8351355968
0.8048777270
0.7836625134
0.7708337257
0.7727450266
1.0033292321
0.8229136180
0.7751149780
0.7832224879
0.7935582901
0.7809001357
0.9129638740
0.7868441484
0.7962140864
0.7793044679
0.9037120379
0.8531505169
0.7794640443
0.7852207155
0.8591746211
0.7761612062
0.8843281960
0.8480808206
0.7809338621
0.8531747354
0.8400340407
0.8263845707
0.7789252574
0.8409714417
0.9722808278
0.7909285427
0.8350567952
0.7936550335
0.7793271600
0.8428339206
0.8350503464
0.7929555738
0.8636561903
0.8170779760
0.9321182175
0.9640167390
0.8595325454
0.7988061564
0.9723176974
0.8298399430
0.7891492054
0.9249070411
0.9045132179
0.8609805193
0.7951650798
0.7886313435
0.7819066907
0.8678309497
0.8235628170
0.8497685155
0.8669555683
0.9468568364
0.8001315991
0.8098112939
0.9686019490
0.9664248695
0.8235409008
0.8834631094
0.9905701979
0.7961789018
0.8041322164
0.8834641199
0.9357178358
0.7850798699
0.8637605052
0.8444107358
0.7854417542
0.7816665831
0.9223511548
0.8574558113
0.7775437532
0.7856708058
0.8610492782
0.7751273074
0.8729110081
0.8497740443
0.8773555365
0.7786948917
0.8521727908
0.8452792266
0.8279726781
0.7783211001
0.8413386367
0.7902613259
0.7942454099
0.7813542347
0.8476775140
0.8181839822
0.8458271645
0.8605234613
0.8207028530
0.9676246098
0.9235685615
0.9777129492
0.8347302136
0.7875179032
0.9016877501
0.8633369202
0.7963587581
0.7808938225
0.8658597925
0.9905260249
0.8610433360
0.8636941214
0.8021517281
0.8132136234
0.9487325003
0.9835881544
0.7930625346
0.8058908629
0.9057211037
0.9692389306
0.7836624094
0.8613395855
0.8610046573
0.7831450894
0.7805479878
0.9122536221
0.7836774006