<VTKFile type="UnstructuredGrid" version="0.1">
	<UnstructuredGrid>
		<Piece NumberOfPoints="1862" NumberOfCells="3498">
			<CellData>
				<DataArray type="Int32" Name="type" NumberOfComponents="1" Format="ascii">
0
0
0
0
0
0
0
0
0
0
0
0
0
0
0
0
1
0
0
1
0
0
0
0
0
0
0
0
0
0
0
0
0
1
0
0
0
0
0
0
0
0
0
0
0
0
0
0
0
0
1
0
0
0
0
0
0
0
0
0
0
1
0
0
0
0
0
0
0
0
0
0
0
0
0
0
0
0
0
0
0
0
0
0
0
0
0
0
0
0
0
0
0
0
0
0
0
0
0
0
0
0
0
0
0
0
0
0
0
0
0
0
0
0
0
0
0
0
0
0
0
0
0
1
0
0
0
0
0
0
0
0
0
0
0
0
0
0
0
0
0
0
0
0
0
0
0
0
0
0
0
1
0
1
1
0
0
0
0
0
0
0
0
0
0
0
0
0
1
0
1
0
0
0
0
1
0
0
0
0
0
0
0
0
1
1
0
0
0
0
0
1
0
0
0
0
0
0
0
0
1
0
0
0
0
0
0
0
0
0
0
0
0
0
0
0
0
0
0
0
0
0
0
0
0
0
0
0
0
0
0
0
0
1
0
0
0
0
0
0
0
0
0
0
0
0
0
0
0
0
0
0
0
0
0
0
0
0
0
0
0
0
0
0
0
0
0
0
0
0
0
0
0
0
0
0
0
0
0
0
0
1
0
0
0
0
0
0
0
0
0
0
0
0
0
0
0
0
0
0
0
0
0
0
0
0
0
0
0
0
0
0
0
0
0
0
0
0
0
0
0
0
0
0
0
0
0
0
0
0
0
0
1
0
0
0
0
0
0
0
0
0
0
0
0
0
0
0
0
0
0
0
0
0
0
0
0
0
0
0
0
0
0
0
0
0
0
0
0
0
0
0
0
0
0
0
0
0
0
0
0
0
0
0
0
0
0
0
0
0
1
0
0
0
0
0
0
0
0
0
0
0
0
0
0
0
0
0
0
0
0
0
0
0
0
0
0
0
0
0
0
0
0
0
0
0
0
0
0
0
0
0
0
0
0
0
0
0
0
0
0
0
0
0
0
0
0
0
0
0
0
0
0
0
0
0
0
0
0
0
0
0
0
0
0
0
0
0
0
0
0
0
0
0
0
0
0
0
0
0
0
0
0
0
0
0
0
0
0
0
0
0
0
0
0
0
0
0
0
0
0
0
0
0
0
0
0
0
0
0
0
0
0
0
0
0
0
0
0
0
0
0
0
1
0
0
0
0
0
0
0
0
0
0
0
0
0
0
0
0
0
0
0
1
0
0
0
0
0
0
0
0
0
0
0
0
0
0
0
0
0
0
0
0
0
0
0
0
0
0
0
0
0
0
0
0
0
0
0
0
0
0
0
0
0
0
0
0
0
0
0
0
0
0
0
0
0
1
0
0
0
0
0
0
0
0
0
0
0
0
0
0
0
0
0
0
0
0
0
0
0
1
0
0
0
0
0
0
0
0
0
0
0
0
0
0
0
0
0
0
0
1
0
0
0
1
0
0
0
0
0
0
0
0
0
0
0
0
0
0
0
0
0
0
0
0
0
0
0
0
0
1
0
0
0
0
0
0
0
1
0
0
0
0
0
0
0
0
0
0
0
0
0
0
0
0
0
0
0
0
0
0
0
0
0
0
1
0
0
0
0
0
0
0
1
0
0
0
0
0
0
1
0
0
0
0
0
0
0
0
0
0
0
0
0
0
0
0
0
0
0
0
0
0
0
0
0
0
0
0
0
0
0
0
0
0
0
0
0
0
1
0
0
0
0
0
1
0
0
0
0
0
0
0
1
0
0
0
0
0
0
0
0
0
0
0
0
0
1
0
0
0
0
0
0
0
0
0
0
0
0
0
0
0
0
0
0
0
0
0
0
0
0
0
0
0
0
0
0
0
0
0
0
0
0
0
0
0
0
0
0
0
0
0
0
0
0
0
0
0
0
0
1
0
0
0
0
0
0
0
0
0
0
0
0
0
0
0
0
0
0
0
1
0
0
0
0
0
0
0
0
0
1
0
0
0
0
0
0
0
0
0
0
0
0
0
0
0
0
0
0
0
0
0
0
0
0
0
0
0
0
0
1
0
1
0
0
0
0
0
0
0
0
0
0
0
0
0
0
0
0
0
0
0
0
0
0
0
0
0
0
0
1
0
0
0
1
0
0
0
0
0
0
0
0
0
0
0
0
0
0
0
0
0
0
0
0
0
0
0
0
0
0
0
0
1
0
0
0
0
0
0
0
0
0
0
0
0
0
0
0
0
0
0
0
0
0
0
0
0
0
1
0
0
0
0
0
0
0
0
0
0
0
0
0
0
0
0
0
0
0
0
0
0
0
1
0
0
0
0
0
0
1
0
0
0
0
0
0
0
0
0
0
0
1
0
0
0
0
0
0
0
0
0
0
0
0
0
0
0
0
0
0
0
0
1
0
0
0
0
0
0
0
0
0
0
0
1
0
0
0
0
0
0
0
0
0
0
0
0
0
0
0
0
0
0
0
0
0
1
0
0
0
0
0
0
0
0
0
1
1
0
1
0
1
0
0
0
0
0
0
0
0
0
0
0
1
0
0
0
0
0
1
1
0
0
0
0
0
0
1
0
0
0
0
0
1
1
1
0
0
0
0
0
0
0
0
0
0
0
0
1
1
0
0
1
0
0
0
0
0
1
0
0
0
1
0
1
0
0
0
0
0
0
0
1
0
0
0
0
0
0
0
1
0
0
1
0
0
0
0
0
0
0
0
0
0
0
0
0
0
0
1
0
0
0
0
0
0
0
0
0
0
0
0
0
0
0
0
0
0
0
0
0
0
0
0
0
0
0
0
0
0
0
0
0
0
0
0
1
0
0
0
0
0
0
1
0
0
0
1
0
0
0
0
0
0
0
0
0
0
0
1
0
0
0
0
0
0
0
0
0
0
0
0
0
0
0
0
0
0
0
0
0
0
0
0
0
0
0
0
0
0
0
0
0
0
0
0
0
0
0
0
1
1
0
0
0
0
0
0
0
0
0
0
0
0
0
1
0
0
0
0
0
0
0
0
0
0
0
0
0
0
0
0
0
0
0
0
0
0
0
0
0
0
0
0
0
0
0
0
0
0
0
0
0
0
0
0
0
0
0
0
0
0
0
0
0
0
0
0
0
0
0
0
0
0
0
0
0
0
0
0
0
0
0
0
0
0
0
0
1
1
0
0
0
0
0
0
0
0
1
0
0
0
0
0
0
0
0
0
0
0
0
0
0
0
0
0
0
0
0
0
0
0
1
0
0
0
0
0
0
0
0
0
0
0
0
0
0
0
0
1
0
0
0
0
0
0
0
0
0
0
0
0
0
0
0
0
0
0
0
0
0
0
0
0
0
0
0
0
0
0
0
0
0
0
0
0
0
0
0
0
0
0
0
0
0
0
0
0
0
0
0
0
0
0
0
0
0
0
0
0
0
0
0
0
0
0
0
0
0
0
0
0
0
0
0
0
0
0
0
0
0
0
0
0
0
0
0
0
0
0
1
1
0
0
0
0
0
1
0
0
0
0
0
0
0
0
0
0
0
0
1
0
0
0
0
0
0
0
0
0
0
0
0
0
0
0
0
0
0
0
0
0
0
0
0
0
0
0
0
0
0
0
0
0
0
0
0
0
0
0
0
0
0
0
0
0
0
0
0
0
0
0
0
0
1
0
1
0
0
0
0
0
0
0
0
0
0
0
0
0
0
0
0
0
0
1
0
0
0
0
0
0
0
0
0
0
0
0
0
0
0
0
0
0
0
0
0
0
0
0
0
0
0
0
0
0
0
0
0
0
0
0
0
0
0
0
0
0
0
0
0
0
0
0
0
0
0
0
0
0
0
0
0
0
0
0
0
0
0
0
0
0
0
0
0
0
1
0
0
0
0
0
0
0
0
0
0
1
0
0
0
0
0
0
0
0
0
0
0
0
0
0
0
0
0
0
0
0
0
0
0
0
0
0
0
0
0
0
0
0
0
0
0
0
0
1
0
0
0
0
0
0
0
0
0
0
0
0
0
0
0
0
0
0
0
0
0
0
0
0
0
0
0
0
0
0
0
0
0
0
0
0
0
0
0
0
0
0
0
0
0
0
0
0
0
0
0
0
0
0
0
0
0
0
0
0
0
0
0
0
0
0
0
0
0
0
0
0
0
0
0
0
0
0
0
0
0
1
0
0
0
0
0
0
0
0
0
0
0
0
0
0
0
0
0
0
0
0
0
0
0
0
0
0
0
0
0
0
0
0
0
0
0
0
0
0
0
0
0
0
0
0
0
0
0
0
0
0
0
0
0
0
0
0
0
0
0
0
0
0
0
0
0
0
0
0
0
0
0
0
0
0
0
0
0
0
0
0
0
0
0
0
0
0
0
0
0
0
0
0
0
0
0
0
0
0
0
0
0
0
0
0
0
0
0
0
0
0
0
0
0
0
0
0
0
0
0
0
0
0
0
1
0
0
0
0
0
0
0
0
0
0
0
0
0
0
0
0
0
0
0
0
0
0
0
0
0
0
0
0
0
0
0
0
0
0
0
0
0
0
0
0
0
0
0
0
0
0
0
0
0
0
0
0
0
0
0
0
0
0
0
0
0
0
0
0
0
0
0
0
0
0
0
0
0
0
0
0
0
0
0
0
0
1
0
0
0
0
0
0
0
1
0
0
0
0
0
0
0
0
0
0
0
0
0
0
0
0
0
0
0
0
0
0
0
0
0
0
0
0
0
0
0
0
0
0
0
0
0
1
0
0
0
0
0
0
0
0
0
0
0
0
0
0
0
0
0
0
0
0
0
1
0
0
0
0
0
0
0
0
0
0
0
0
1
1
0
0
0
0
0
0
0
0
0
0
0
0
0
0
0
1
1
0
1
0
0
0
0
0
0
0
0
0
1
0
0
0
0
0
0
1
0
0
0
0
0
0
0
0
0
0
1
0
0
0
0
1
0
1
0
0
0
0
0
0
0
1
0
0
0
1
0
0
0
1
0
1
1
0
0
1
1
0
0
0
1
0
0
0
1
0
0
0
0
0
0
0
0
0
1
0
0
0
0
0
0
1
0
0
0
0
0
0
0
0
0
0
0
0
0
0
0
0
0
0
0
0
0
0
0
0
0
0
0
1
0
0
1
0
0
0
0
0
0
0
0
0
0
0
0
0
0
0
0
0
0
1
0
0
1
0
0
0
0
0
0
0
0
0
0
0
1
0
0
1
0
0
0
0
0
0
0
0
0
0
0
1
1
0
0
0
0
0
0
0
0
0
0
0
0
1
0
0
0
0
0
0
0
0
0
0
0
0
0
0
0
0
0
1
0
0
0
0
0
0
0
0
0
0
0
0
0
0
0
0
0
1
0
0
0
0
0
0
0
0
0
0
0
0
0
0
0
0
0
0
0
0
0
0
0
0
0
0
0
0
0
0
0
0
0
0
0
0
0
0
0
0
1
0
0
0
0
0
0
0
0
0
0
0
0
0
0
0
0
0
0
0
0
0
0
0
0
0
0
0
0
0
0
0
0
0
0
0
0
0
0
0
0
0
0
0
0
0
1
0
0
0
0
0
0
0
0
0
0
0
0
0
0
0
0
0
0
0
0
0
0
0
0
0
0
0
0
0
0
0
0
0
0
0
0
0
0
0
0
0
0
0
0
0
0
0
1
0
0
0
0
0
0
0
0
0
0
1
0
0
0
0
0
0
0
0
0
0
0
0
0
0
0
1
0
0
1
0
0
0
0
0
0
0
0
0
0
0
0
0
0
0
0
0
0
0
0
0
0
0
1
0
0
0
0
0
0
0
0
0
0
0
0
0
0
0
0
0
0
0
0
0
0
0
0
0
0
0
0
0
0
0
0
0
0
0
1
0
0
0
0
0
0
0
0
0
0
0
0
0
0
0
0
0
0
0
0
0
0
0
0
0
0
0
0
0
0
0
0
0
0
0
0
0
0
0
0
0
0
0
0
0
0
0
0
0
0
0
0
0
0
0
0
0
0
0
0
0
0
0
0
0
0
0
0
0
0
0
0
0
0
0
0
1
0
0
0
0
0
0
0
0
0
0
0
0
0
0
0
0
0
0
0
0
0
0
0
0
0
0
0
0
0
0
0
0
0
0
0
0
0
0
0
1
0
0
0
0
0
0
0
0
0
0
0
0
1
1
0
0
0
0
0
0
0
0
0
0
0
0
0
0
0
0
0
0
0
0
0
0
0
0
0
0
0
0
0
0
0
0
0
0
0
0
0
0
0
0
0
0
0
0
0
0
0
0
0
0
0
0
0
0
0
0
0
0
0
0
0
0
0
0
0
0
0
0
0
0
0
0
0
0
0
0
0
0
0
0
0
0
0
0
0
0
0
0
0
0
0
0
0
0
0
0
0
0
0
0
0
1
0
1
0
0
0
0
0
0
0
1
1
1
1
0
0
0
0
0
0
0
0
0
0
0
0
0
0
0
0
0
0
0
0
0
0
0
0
0
0
0
0
1
1
0
0
0
0
0
0
0
0
0
0
0
0
0
0
0
0
0
0
1
0
0
0
0
0
0
0
1
1
0
1
1
0
0
1
0
0
0
0
0
0
0
1
0
1
0
0
0
0
0
0
0
0
0
0
0
0
0
0
0
0
0
0
0
0
0
0
0
0
0
0
0
1
1
0
0
0
1
1
0
0
0
0
1
0
0
1
0
1
0
0
0
0
0
1
0
0
0
1
0
0
0
0
0
0
0
0
0
0
0
0
0
0
0
0
0
0
0
0
0
0
0
0
0
0
0
1
0
0
0
0
0
0
1
0
0
0
0
0
0
0
0
0
0
0
0
0
0
0
0
0
0
0
0
0
0
0
0
0
0
0
0
0
1
0
1
0
0
0
0
0
0
0
1
0
0
0
0
0
0
0
0
0
0
0
1
0
0
0
0
0
0
0
0
0
1
0
0
0
0
0
0
0
1
0
0
0
0
0
0
0
1
0
0
0
0
0
0
0
0
0
0
0
0
0
0
0
0
0
0
0
1
0
1
0
0
0
0
0
1
0
0
0
0
0
0
0
0
0
0
0
0
0
0
0
0
0
0
0
0
0
0
0
0
0
1
0
1
0
0
0
0
0
0
0
0
0
1
0
0
0
0
0
1
0
0
0
0
0
0
0
0
0
0
0
0
0
0
0
1
0
0
0
0
0
0
0
0
1
0
0
0
0
0
0
0
0
0
0
0
0
0
0
0
0
0
0
0
0
0
0
0
0
0
0
0
0
0
0
1
0
0
0
0
0
0
0
0
0
0
0
0
0
0
0
0
1
0
0
0
0
0
0
0
0
1
0
0
0
0
0
0
0
0
0
1
0
0
0
0
0
1
0
0
0
0
0
0
0
0
0
0
0
0
0
0
0
0
0
0
0
1
0
0
0
0
0
0
1
0
0
0
0
0
0
0
0
1
0
0
0
0
0
0
0
0
0
0
0
0
0
0
1
0
0
1
0
0
0
1
0
0
0
0
0
0
0
0
0
0
0
0
0
0
0
0
1
0
0
0
0
0
0
0
0
0
0
1
0
1
0
0
0
0
0
0
1
0
0
0
0
0
0
0
0
0
0
0
0
0
0
0
0
0
0
0
0
0
0
0
0
0
0
0
1
1
0
0
0
0
0
0
1
0
0
0
0
0
0
0
0
0
0
0
0
0
1
0
0
0
0
0
0
0
1
0
0
0
0
0
0
0
0
0
0
0
0
0
0
0
0
0
0
0
0
0
0
0
0
0
0
0
1
0
0
0
0
0
0
0
0
0
0
1
0
0
1
0
0
0
0
0
0
0
0
0
0
0
0
0
0
0
0
0
0
0
0
0
0
0
0
0
0
0
0
0
1
0
0
0
0
0
0
0
1
0
0
0
0
0
0
0
1
0
0
0
0
1
0
0
0
0
0
0
0
0
0
0
0
1
0
1
0
0
0
1
0
				</DataArray>
				<DataArray type="Float64" Name="h" NumberOfComponents="1" Format="ascii">
0.9089641573
0.9090472045
0.8923961137
0.9060218166
0.8909878806
0.8952816775
0.8992632426
0.9144247091
0.9037088165
0.9279746370
0.9109421230
0.8967929153
0.9160133632
0.9186236479
0.9139672927
0.9259125265
0.9001864312
0.9263335680
0.9086266827
0.9120625520
0.8868245252
0.9127722565
0.8957666351
0.8870927457
0.9053366683
0.9333563124
0.8985283532
0.8660180079
0.8888750633
0.9226973117
0.9177237283
0.8956623397
0.9130455413
0.8913374534
0.8789727639
0.8834051090
0.8804660012
0.8899606302
0.8626934732
0.8852801532
0.8885281122
0.8710549035
0.8987094690
0.8832558761
0.8830350796
0.8720053960
0.8903044311
0.8770493061
0.8606670921
0.8557323614
0.8853486098
0.8788323003
0.8838183690
0.8629247141
0.8762780681
0.8915072684
0.8739269856
0.8749650560
0.8733801827
0.8687302943
0.8759489325
0.8766299555
0.8641282603
0.8795477613
0.8766656944
0.8579319100
0.8499266141
0.8594080265
0.8747204680
0.8754524278
0.8728460515
0.8777090442
0.8834076332
0.8636572669
0.8692387470
0.8456717832
0.8752202178
0.8726661631
0.8762153760
0.8537156525
0.8756669819
0.8568418120
0.8626756511
0.8536881105
0.8569777452
0.8451939137
0.8750869546
0.8463833471
0.8693393402
0.8596951061
0.8729313334
0.8481191190
0.8737392630
0.8554043452
0.8473675988
0.8485901123
0.8411254126
0.8573993121
0.8566781724
0.8748839565
0.8622642679
0.8760812841
0.8513741587
0.8757361331
0.9387452108
0.8437286600
0.8371711130
0.8623285904
0.8724871488
0.8511631343
0.8536920423
0.8586078888
0.8716313773
0.8692097462
0.8561971080
0.8732477658
0.8552480190
0.9353050151
0.8695022557
0.8612757214
0.9384663484
0.8456486079
0.8359798727
0.9427651659
0.8677931071
0.8646557389
0.8595563673
0.9457381368
0.8753521363
0.8711809920
0.8733304295
0.8412047477
0.8641630449
0.8766285314
0.9335904668
0.8725584843
0.9389440234
0.8746011653
0.8767741564
0.9198329878
0.9487213477
0.9380660519
0.8732604876
0.9066689796
0.8391069465
0.8749207113
0.9300156008
0.8697729634
0.9418863006
0.8699379213
0.9417093916
0.8754843406
0.8739292154
0.8730227824
0.8771909926
0.8721377835
0.8741074339
0.9450050379
0.8710336135
0.9537895077
0.9146194865
0.8716749706
0.9350518450
0.9499339266
0.9455602255
0.8686830340
0.8918024663
0.9270096399
0.9494743103
0.8712096379
0.8745514761
0.9534386622
0.8731449137
0.9457787404
0.8842497285
0.8727692349
0.9002395747
0.8650612180
0.8726467840
0.9504540204
0.8712637914
0.8687759572
0.9542919768
0.8299455254
0.9546223911
0.9573858659
0.8765734274
0.8715762818
0.9516001374
0.9582706261
0.8545163358
0.8725267807
0.9569168569
0.8621763908
0.8727836888
0.8660388026
0.9493885795
0.8419491364
0.8490483470
0.8668379392
0.9586938883
0.8276398414
0.9578773252
0.8706034460
0.8309176369
0.9543604555
0.9257984395
0.9417272058
0.8374724670
0.9000990347
0.8546049929
0.9565724354
0.9522514699
0.9558148874
0.9348021831
0.8414707959
0.9141786787
0.9512518067
0.8692796808
0.9559096019
0.8275272753
0.8513756071
0.8844843044
0.8393685067
0.8222513524
0.8638559174
0.8593558735
0.8288062823
0.8221429344
0.8560387942
0.8676783075
0.8455913694
0.8247205442
0.8649646794
0.8628594330
0.8334343640
0.8471881218
0.9201685912
0.9572706812
0.8930028946
0.8477705501
0.9377035267
0.9517967988
0.8928577447
0.9385007151
0.9210848224
0.9529686555
0.8613930488
0.9301337841
0.9483780776
0.9076119837
0.8618925901
0.9499434451
0.8347177007
0.8349893175
0.9533071717
0.9080020552
0.9311688613
0.9558264973
0.8411236344
0.8774079023
0.8148025875
0.8194805132
0.8301641085
0.8207006309
0.8604564187
0.8589824711
0.8205487226
0.8624881162
0.8430661902
0.8528598088
0.8769476974
0.8525859172
0.8287401910
0.8346031739
0.8157245366
0.8160916007
0.8242535247
0.8366843412
0.8193365415
0.8564359487
0.8603791436
0.8609521795
0.8576556088
0.8486015749
0.8473381025
0.8241704103
0.9137375311
0.9499880974
0.9483245220
0.9144569557
0.8407687088
0.9328088554
0.9341336467
0.8860470714
0.8418590012
0.8855724284
0.9244367675
0.9445616908
0.9533156261
0.9497084849
0.9255726879
0.8545318073
0.8298257076
0.8289385446
0.9007407579
0.8556164630
0.9008258343
0.9460691133
0.8093637777
0.8195531369
0.8117545249
0.8573236844
0.8152820487
0.8453695435
0.8317731627
0.8706297578
0.8444412938
0.8532455261
0.8697810091
0.8212586488
0.8130152707
0.8341968461
0.8549161355
0.8095556335
0.8153775771
0.8157826359
0.8555486594
0.8253072160
0.8384137449
0.8492449598
0.8516856248
0.8548606561
0.8117879124
0.8276158471
0.8128100609
0.8403117452
0.9075064741
0.8332821877
0.8795157849
0.8374050074
0.8785576931
0.9456360920
0.8359208738
0.9270842515
0.9070882921
0.9285417892
0.9438184066
0.8225468380
0.8042722177
0.8264887092
0.8054620268
0.9191941323
0.9415592624
0.8239218496
0.8939851309
0.8033595060
0.8503694792
0.8936842014
0.8083399178
0.8135282478
0.8245381265
0.9497135606
0.8487910544
0.8250588556
0.9181674027
0.8129487237
0.8076735097
0.8017784018
0.9446013924
0.8024645734
0.8133589154
0.9394599857
0.8470012128
0.8227131777
0.8135948208
0.8481249239
0.9213359407
0.8373379382
0.8065160403
0.8122997367
0.8356652602
0.8513255319
0.8646826425
0.8255337529
0.8632337644
0.8075321260
0.8118916796
0.8062299376
0.8687709104
0.8486362742
0.8099089316
0.8166985003
0.8250444679
0.8448183004
0.8192761939
0.9160036969
0.8988112470
0.8897819387
0.8392986624
0.8053928378
0.8412114330
0.8482077590
0.8292774179
0.8315349632
0.8497136078
0.8317405839
0.8088283916
0.8085285495
0.8581908253
0.8090915123
0.8078708285
0.8139176149
0.8057914819
0.9005994158
0.8260933485
0.8248679776
0.8723216747
0.8091421880
0.8036654750
0.8145236204
0.8191770504
0.9222961716
0.8181721957
0.8225737849
0.8052399110
0.8357161523
0.9410109464
0.8097001377
0.8327357956
0.8022417582
0.8211315177
0.8039170941
0.8170050274
0.8022936488
0.8029103559
0.8091210795
0.8193581741
0.8329588158
0.8160981762
0.8076372638
0.8048740831
0.9125083098
0.8062486418
0.8112863734
0.8869242207
0.8023530214
0.8069286957
0.8090403623
0.8077469629
0.8039895334
0.8376557696
0.9446032491
0.8068068782
0.8444963046
0.8191759569
0.8156589246
0.8131290839
0.8036861672
0.8147242485
0.9362114174
0.8229619652
0.8941425626
0.8446998150
0.8580337105
0.8148746045
0.8029039313
0.8045616401
0.8339740718
0.9158577507
0.8408661758
0.8671830050
0.8270143494
0.8416191719
0.8112652872
0.8061860273
0.8121049289
0.8605119452
0.9353860607
0.9177496068
0.9127906560
0.8222131475
0.9059297948
0.8427343512
0.8100169789
0.8102396245
0.8328282536
0.9064865843
0.8098325194
0.8944683785
0.8108694512
0.8069228839
0.8122904280
0.9303795875
0.9159943719
0.8796487088
0.8809295222
0.8110472071
0.8208276506
0.9078223594
0.8079931277
0.8079415045
0.8708263642
0.8897733865
0.8392952358
0.8538716720
0.8043602840
0.9391154926
0.8155514482
0.8097242501
0.9064960413
0.8310805661
0.8065013580
0.8671782758
0.8172813898
0.9353822609
0.8050859430
0.8113925253
0.9328761317
0.8688478820
0.8310808764
0.8050949909
0.8093602464
0.8281731380
0.8946462408
0.8073366905
0.9073900636
0.8054496297
0.8216715673
0.8335248122
0.8055081498
0.8941346258
0.8033810021
0.9147736334
0.9158475134
0.8401178099
0.9303725490
0.8809234637
0.9391149064
0.8216702419
0.8222145446
0.8478862534
0.8829951691
0.9369468398
0.8651366745
0.8820134157
0.9111652023
0.8416173132
0.8563193813
0.8909398012
0.8168089199
0.8741895641
0.9055727170
0.8269559608
0.9281895465
0.8215694915
0.8247821219
0.8977928612
0.8104130029
0.8156754740
0.8439170665
0.9035513534
0.8131413645
0.9059201129
0.8331126127
0.8193818790
0.8538680601
0.8029138376
0.8083863385
0.8376778134
0.8559085890
0.8085058717
0.8072142032
0.8071210796
0.8036674442
0.9270626618
0.8116990292
0.8139357458
0.8065042067
0.8425285622
0.8773976003
0.8090689746
0.8079964596
0.9043033688
0.8115831199
0.9089508786
0.8329662908
0.8139489730
0.8023576836
0.8935773115
0.8357352570
0.8424485013
0.8809242605
0.8335615924
0.8874958087
0.8068077679
0.8331438532
0.9309936360
0.8122603809
0.8507307702
0.8272902690
0.8533129480
0.8112338673
0.8892036946
0.8052584484
0.8792615633
0.8558233873
0.8099612333
0.8248774603
0.9005235081
0.8637631374
0.9163576772
0.8091113453
0.8978248650
0.8139353265
0.8999157293
0.8093860328
0.9147649476
0.8559032395
0.8335237171
0.8946377716
0.8177050385
0.8170433935
0.9223230336
0.9328725887
0.8651696419
0.8978350768
0.8113381193
0.9281834753
0.8846433703
0.8558217624
0.8947441562
0.8779383252
0.8247817997
0.8688409856
0.8439138376
0.9055638936
0.8099667533
0.8120328961
0.8091225614
0.8101284867
0.9369459109
0.8634444009
0.8483247604
0.8392555775
0.8125478514
0.8077519612
0.8269549382
0.8718221407
0.8106999040
0.8989621120
0.8719966616
0.9234901826
0.9038626552
0.8994934353
0.8490560297
0.8307593987
0.8820055190
0.8093811323
0.8836212725
0.9270928574
0.9118374542
0.8089004253
0.8105448890
0.8121404654
0.8090293250
0.8993928516
0.8603081618
0.9183278739
0.8943840909
0.8116807920
0.8121726264
0.8401154216
0.8709706463
0.8479957619
0.8904332759
0.8105641618
0.8923494517
0.8871689649
0.8137386306
0.8132927687
0.8591704570
0.8670662758
0.8118713764
0.8743268796
0.8782944990
0.8961754887
0.8127259565
0.8134564353
0.8128117773
0.8821103329
0.8891864072
0.8974826718
0.8965271485
0.8924645674
0.8126756291
0.8131447791
0.8096926304
0.8113253431
0.9003305443
0.8137906567
0.8137095198
0.8991375137
0.8120277643
0.8111218663
0.9005223800
0.8151050027
0.8741840206
0.8127973791
0.8980135102
0.8916326913
0.8159100198
0.8978201186
0.8142313969
0.8128894861
0.9035421289
0.8121543825
0.9043270609
0.9044190291
0.8116614095
0.8123676578
0.9144437353
0.9007891739
0.8994187093
0.8994791734
0.9008642851
0.9013943904
0.8967790439
0.9109089088
0.9107572022
0.8929880164
0.8952607332
0.8910120018
0.8930227486
0.9037473368
0.9139128737
0.8992279935
0.9233655597
0.9108011017
0.9014204847
0.9202868597
0.9263000032
0.9060503899
0.8924125780
0.9085336434
0.9226708492
0.9257323703
0.8952791862
0.9144734998
0.9333535396
0.9053156024
0.9280056683
0.9179743872
0.9160887055
0.8899469585
0.9207956097
0.9039000106
0.9233963111
0.9177041232
0.9203478983
0.8913333246
0.9129866004
0.8955640064
0.9071714114
0.8852700764
0.8647416504
0.9001952267
0.9259422917
0.8985908899
0.8626331717
0.8952885786
0.9257702995
0.8884834245
0.9186487820
0.9120767642
0.8899563297
0.8958755803
0.8755756737
0.9128396947
0.8837741075
0.9180521486
0.8868293635
0.9040082078
0.9043794307
0.8635256157
0.8770465275
0.9208329627
0.8830198549
0.8853437909
0.8901897510
0.8660602019
0.8871059265
0.8889325428
0.8738882653
0.8696646101
0.8986926609
0.8786828632
0.9302588684
0.8648148677
0.8728973694
0.8772540611
0.9072737576
0.8837465688
0.8755741070
0.8576317207
0.8624343725
0.9044818720
0.8837804477
0.8802166051
0.8635397802
0.8834278015
0.8765823732
0.8900744423
0.8747923457
0.8789774231
0.8641513324
0.8594221678
0.8662565072
0.8804703050
0.8795281997
0.8728952522
0.8747232121
0.8724716848
0.8833395427
0.8636862682
0.8669872084
0.8777067726
0.8832870093
0.8761926019
0.8693624496
0.8752325681
0.8786873198
0.8756544741
0.8772604535
0.8710648109
0.8752200379
0.8728488517
0.8658395629
0.8692464727
0.8697537433
0.8837518584
0.8747189633
0.8808174914
0.9302928839
0.8754464844
0.8802228384
0.8747914349
0.8545403803
0.8662574021
0.8576112056
0.8728169176
0.8519988219
0.8606332295
0.8788648577
0.8624189901
0.8720571794
0.8568518131
0.8536870111
0.8649686287
0.8576067225
0.8557150630
0.8759482889
0.8766335666
0.8838718229
0.8749296264
0.8658130981
0.8733771937
0.8720527899
0.8669802726
0.8499185762
0.8762529256
0.8747218123
0.8808245372
0.8712071438
0.8762845920
0.8750244095
0.8761940080
0.8756588188
0.8916225644
0.8601019826
0.8701490275
0.8694536726
0.8629102600
0.8724670570
0.8687229991
0.8480641442
0.8749680507
0.8753271848
0.8737450874
0.8575878013
0.8757285861
0.8566320287
0.8649547155
0.8620273342
0.8728103452
0.8760823511
0.8462907499
0.8740064886
0.8522343621
0.8579415530
0.8623152120
0.8499215118
0.8773574388
0.8573253962
0.8767558030
0.8485649880
0.8673221818
0.8520007625
0.8748930918
0.8437200046
0.8545745016
0.8645603857
0.8600965799
0.8724921985
0.8586542669
0.8749294760
0.8701426222
0.8716382120
0.8712022645
0.8457310178
0.8498966835
0.8720482014
0.8726629687
0.8763547610
0.8728462643
0.8499752389
0.8537146621
0.8511694866
0.8750221881
0.8740009881
0.8645211182
0.8600869953
0.8767551161
0.8452438004
0.8456572520
0.8674240449
0.8773645861
0.9382471428
0.8673151375
0.8522427806
0.8570494851
0.8537813407
0.8750810566
0.8626222337
0.8756616576
0.8552364047
0.8762181564
0.8463055116
0.9384584375
0.8463960272
0.8620998627
0.8728352741
0.8411834745
0.8479324093
0.9387318375
0.8646930633
0.8702993052
0.8702424520
0.8693269351
0.8473789693
0.8553702792
0.8697814068
0.8596405908
0.8729173167
0.8679013102
0.8764938846
0.8678003341
0.8595824536
0.8499051049
0.8712009233
0.8513846951
0.8672346326
0.8437810680
0.8600924181
0.9382566642
0.8674040438
0.8662049981
0.9335762473
0.8725763539
0.8641857274
0.9387533151
0.8411451891
0.8390592640
0.8419683240
0.9380546883
0.8657536321
0.9387385478
0.8697565502
0.8691926396
0.8622869930
0.9357847618
0.8764993968
0.8702301685
0.8562028106
0.9418784673
0.8479411636
0.8732755595
0.9456675381
0.8732282304
0.8702909944
0.8749360124
0.8678762486
0.8372163946
0.9395935502
0.8394177874
0.8378631579
0.8754845024
0.8672056330
0.8661852406
0.9446433749
0.8749669162
0.8655750467
0.8762821591
0.8612477763
0.8438240795
0.8754922479
0.9353166485
0.8755125870
0.8694817037
0.9300609707
0.9417225342
0.8739406041
0.8771978392
0.9357781368
0.9456779908
0.9269821264
0.9455584581
0.8657464208
0.8715459914
0.9396020007
0.9476723258
0.8685671542
0.8380470263
0.8419986680
0.9427760692
0.8753408139
0.9145841574
0.9428668749
0.8360301755
0.8733164576
0.9283018485
0.9350614742
0.8760006878
0.8716883038
0.9457465811
0.8710427183
0.8762714321
0.9389210439
0.8766177285
0.8733534287
0.8344350865
0.8655329346
0.8737164703
0.8745874922
0.8731501717
0.9238174989
0.9447787779
0.8767662715
0.9300747735
0.8379222360
0.9446359512
0.8754761482
0.8394664526
0.8755013335
0.8712251201
0.8773494510
0.8749554378
0.8745569588
0.9457812332
0.8699317106
0.9542820205
0.8352681940
0.9428725653
0.9476793105
0.8673177421
0.8724735985
0.8722708370
0.9067636930
0.8697606047
0.9300535963
0.9504515350
0.8685598389
0.9283155466
0.8380856705
0.9534724105
0.9487256149
0.8712851876
0.8759882191
0.9001290975
0.8773775024
0.9198826045
0.8715334478
0.9518056305
0.9515893363
0.8721179386
0.8741007991
0.9447731670
0.8300712040
0.8733411306
0.9341855638
0.9238288231
0.8344861299
0.9546093935
0.8736969768
0.8730179944
0.9450014415
0.8773380111
0.8764877510
0.8311606573
0.8727897744
0.8918578955
0.9518141504
0.8672870829
0.8660612209
0.9534786022
0.8722626762
0.8773670559
0.8681948288
0.9548845410
0.8724622911
0.8353154123
0.9506445358
0.8725295454
0.8763268476
0.9499371799
0.8686594981
0.8621156569
0.8668512493
0.9538001198
0.8275877434
0.8712914196
0.9534507084
0.9578642703
0.8843147682
0.8706083493
0.8301278520
0.9494856376
0.9586804350
0.9341958632
0.8489979496
0.8703608338
0.8726423267
0.9498302687
0.9548966884
0.9506538096
0.9565593280
0.8668425306
0.8681771541
0.9531339442
0.8642441339
0.8688446174
0.8763162924
0.8727639936
0.8312156820
0.9578961612
0.9583244294
0.8650452483
0.9522508069
0.8374282939
0.8545612494
0.8676780689
0.8712836690
0.9582841022
0.8703540492
0.8688779835
0.8686893395
0.8299926808
0.9573985587
0.8715692137
0.8274929707
0.9529645956
0.9210789538
0.9481993672
0.9385182860
0.8419884169
0.9583382456
0.8300662682
0.9559891088
0.8928406935
0.9472554942
0.9498275489
0.8471639743
0.9569301857
0.9576743351
0.8642109127
0.9493843486
0.9565878460
0.9311705329
0.9446659511
0.8346971757
0.9079957806
0.9499468251
0.8613580830
0.9579102847
0.9572570041
0.9531386605
0.8653151671
0.8241477448
0.8309483414
0.8688743342
0.8473395972
0.8768835965
0.8686874019
0.8345192608
0.8192996923
0.8609596345
0.8564934710
0.8614747347
0.8240966465
0.8205292413
0.8526291540
0.8668364324
0.8410722008
0.8206447441
0.8624911682
0.8589395516
0.8604816022
0.8286530582
0.8546376411
0.9144638616
0.9437248837
0.9559210820
0.8855349238
0.8407567189
0.9472485604
0.8300909148
0.9481940916
0.9548519743
0.8242036695
0.9341512664
0.9499877939
0.9560011419
0.9001175370
0.9417226598
0.9258075229
0.9543683861
0.8693447775
0.9255925655
0.9460761996
0.9576885260
0.9008102631
0.8545235351
0.9512509956
0.8415031713
0.8289288080
0.9407373393
0.9546114704
0.9142050694
0.9446599537
0.9347821458
0.9566011764
0.8456040473
0.8697531067
0.8192983578
0.8127911917
0.8153187408
0.8252087029
0.8247913730
0.8588931130
0.8628437370
0.8555550180
0.8221761375
0.8649629809
0.8558098402
0.8383759030
0.8492876667
0.8845389736
0.8653102475
0.8559845964
0.8335060665
0.8394202139
0.8152756668
0.8129808524
0.8194691856
0.8316895497
0.8223062843
0.8593013094
0.8614384682
0.8573251898
0.8241641868
0.8638555626
0.8549427230
0.8444550710
0.8526324056
0.8513444114
0.8288832314
0.9075098149
0.9392493615
0.9518008326
0.9548603194
0.9456386057
0.9201610007
0.8477897072
0.8199464641
0.9285575548
0.8242164848
0.9376937318
0.8785547192
0.8359157672
0.8930287931
0.9437162419
0.9192084789
0.9415680142
0.9546224353
0.9515775940
0.9301232668
0.8619105570
0.8250543382
0.9358433565
0.8350064894
0.9407275784
0.8936804848
0.8487864433
0.9076222844
0.9483735512
0.8088220874
0.8243472116
0.8084978968
0.8603774003
0.8157371544
0.8412296302
0.8367394186
0.8632343541
0.8485657776
0.8525884215
0.8491173366
0.8497136699
0.8163740873
0.8774566017
0.8166202334
0.8161497264
0.8292193094
0.8576340178
0.8075174108
0.8195613283
0.8118362722
0.8589820668
0.8193045942
0.8453851494
0.8302519832
0.8430702858
0.8528084264
0.8481436471
0.8513215772
0.8122982788
0.8226296937
0.8148363810
0.8356507303
0.8557674035
0.8260798988
0.8022396532
0.8178609884
0.8091261233
0.9137282339
0.9392388452
0.8286130564
0.8203336713
0.8723245360
0.8042793308
0.8327337922
0.8860596234
0.8051896326
0.8181591594
0.8267399378
0.9483254189
0.8418687149
0.8199532908
0.9223089299
0.9006077498
0.9327944927
0.8078701960
0.8124049604
0.8029034973
0.9410142066
0.8021006351
0.8121675055
0.9340527219
0.8266681320
0.8031075173
0.8229584928
0.8077809329
0.9244204256
0.9445550872
0.8307698517
0.8201849326
0.8869290914
0.8023236082
0.8444959600
0.9007468612
0.8064129940
0.8170231311
0.8281542483
0.9515853884
0.8556225424
0.8298339729
0.9301180375
0.9125201685
0.9358307038
0.8107388002
0.8095492445
0.8024139775
0.9475947857
0.8030088384
0.8162770935
0.9362194866
0.8625493500
0.8427241276
0.8152995425
0.8276945056
0.8323988231
0.8416917356
0.8097894032
0.8516658138
0.9177519068
0.9160210146
0.8947661626
0.8328272567
0.8944774882
0.8479321701
0.8069213225
0.8453580956
0.8117898522
0.8419312966
0.8403051257
0.8262948586
0.8548635257
0.8580351070
0.8207758640
0.8706349718
0.8095849710
0.8158611367
0.8666505277
0.8043484942
0.8708325520
0.8446872782
0.8112643227
0.8213501186
0.8272921799
0.8408695071
0.8148167258
0.8490843535
0.9213775761
0.9195196217
0.8988818371
0.8376005813
0.8904749946
0.8418134103
0.8045564606
0.8453384606
0.8163780970
0.8507347630
0.8342349201
0.8339767343
0.8532430190
0.8269879854
0.8093746548
0.8118085506
0.8605169681
0.8061608767
0.8061467959
0.8080620111
0.8179550767
0.8340011417
0.8113927374
0.8042805433
0.8050937670
0.8043678070
0.9070799474
0.8303828949
0.8047677461
0.8292716778
0.8303726748
0.8156937338
0.8795107304
0.8121465496
0.8032635604
0.8124050399
0.8018367224
0.8167342037
0.8079302618
0.9270723227
0.8220246460
0.8267562347
0.8078980312
0.8104024817
0.8121241353
0.8055016956
0.8400915786
0.9438173603
0.8096867565
0.8121820170
0.8374083050
0.8129485297
0.8145242208
0.8167932808
0.8156610289
0.8018388701
0.8033778582
0.8176564985
0.8051998255
0.8203452803
0.8124213342
0.9340424836
0.8178654903
0.8021042881
0.8044425333
0.8225543355
0.8042740007
0.8101881022
0.8237078437
0.8096889832
0.8375745604
0.8141788903
0.8076741220
0.8060643444
0.8040302883
0.9181554334
0.8286309159
0.8059612480
0.8298125351
0.8129203321
0.8939794923
0.8135446908
0.8030630479
0.8182817042
0.8182828031
0.8056463622
0.9301067734
0.8225562402
0.8239373056
0.8124914013
0.8092532551
0.8044226802
0.8418488533
0.9475994250
0.8056113314
0.8022911445
0.8083534261
0.8503716808
0.8167338044
0.8176882471
0.8155428337
0.8017828284
0.8027682566
0.8194099676
0.8030148664
0.8162911973
0.8126819972
0.9394531154
0.8264925860
0.8023247039
0.8054741335
0.9005859589
0.8486430991
0.8091056963
0.8112222334
0.8375914168
0.8646803174
0.9127820200
0.8193467606
0.8904665370
0.8085050623
0.8046354409
0.8054024797
0.8315320840
0.8122476096
0.9282686495
0.9160421079
0.9209333239
0.8448104905
0.8764236605
0.8738299285
0.8106911858
0.8317565312
0.9059237593
0.8071238921
0.8091173197
0.8625433170
0.8988019179
0.8334178782
0.8334151038
0.8464658310
0.8099096299
0.8091352581
0.8138319774
0.8581857132
0.8396712356
0.9385904758
0.9213292012
0.8116988242
0.8106468818
0.9116153112
0.9017892553
0.8249841218
0.9125631670
0.8065496051
0.9117498575
0.8470019656
0.8099543801
0.8108960265
0.8373289404
0.9108886266
0.8136596952
0.8988726736
0.8095574799
0.8065177930
0.8396681418
0.8125342330
0.9339905052
0.9194955384
0.9239387702
0.8416780620
0.8809316530
0.8877161017
0.8114236503
0.8255838585
0.9116063381
0.8071995342
0.8081119981
0.8687646820
0.8947574294
0.8418101387
0.8736326032
0.8595736268
0.8153040443
0.8062532121
0.8133061981
0.8666452020
0.9425862421
0.9213714015
0.9035736649
0.8173190539
0.8087136463
0.9167053421
0.9059332140
0.8347612663
0.8055878834
0.8345485038
0.9282599579
0.8738240149
0.8156928678
0.9385881911
0.8047726744
0.8160972705
0.8173209741
0.8559513380
0.8095267039
0.8882468682
0.9294675301
0.8726321149
0.8185982864
0.8632239215
0.8038012716
0.9113715500
0.8347613422
0.8501780509
0.8038026356
0.8024200722
0.8079309101
0.8869371262
0.8220135647
0.8307948949
0.8172822634
0.8107397174
0.8186127895
0.8686148439
0.8885307051
0.8080702500
0.8170428369
0.8224749170
0.9080749967
0.8061455430
0.9222423975
0.8043700176
0.8024691571
0.8198019100
0.8272210607
0.8169925358
0.8179612264
0.8999414793
0.8333013732
0.8109518758
0.8095493905
0.8065094947
0.8141752431
0.8304510052
0.9016421203
0.8065176208
0.8123641710
0.9005764198
0.8405103293
0.8030795104
0.9096215885
0.9209234746
0.8133710007
0.8421540352
0.9339843953
0.8877081339
0.8209552734
0.9425879577
0.8040336026
0.8198005577
0.8054476836
0.8249856664
0.8499381177
0.8076378773
0.8841694378
0.9331642998
0.8670703705
0.8759647193
0.9101282585
0.8464638591
0.8582735658
0.8057905989
0.8036882394
0.8112861490
0.8916399823
0.8245551928
0.8073297271
0.8176725451
0.8758383443
0.8998161182
0.8062551736
0.8284198509
0.9073028084
0.9242997666
0.8056477593
0.8141601606
0.8209564227
0.8227575263
0.8226986800
0.8980217107
0.8101986518
0.8147388790
0.8398025316
0.9033470115
0.8077552523
0.8124337618
0.9117396671
0.8350040534
0.8039941853
0.9177287297
0.9239294871
0.8237304131
0.8595699733