<VTKFile type="UnstructuredGrid" version="0.1">
	<UnstructuredGrid>
		<Piece NumberOfPoints="1862" NumberOfCells="3498">
			<CellData>
				<DataArray type="Int32" Name="type" NumberOfComponents="1" Format="ascii">
0
0
0
0
0
0
0
0
0
0
0
0
0
0
0
0
1
0
0
1
0
0
0
0
0
0
0
0
0
0
0
0
0
1
0
0
0
0
0
0
0
0
0
0
0
0
0
0
0
0
1
0
0
0
0
0
0
0
0
0
0
1
0
0
0
0
0
0
0
0
0
0
0
0
0
0
0
0
0
0
0
0
0
0
0
0
0
0
0
0
0
0
0
0
0
0
0
0
0
0
0
0
0
0
0
0
0
0
0
0
0
0
0
0
0
0
0
0
0
0
0
0
0
1
0
0
0
0
0
0
0
0
0
0
0
0
0
0
0
0
0
0
0
0
0
0
0
0
0
0
0
1
0
1
1
0
0
0
0
0
0
0
0
0
0
0
0
0
1
0
1
0
0
0
0
1
0
0
0
0
0
0
0
0
1
1
0
0
0
0
0
1
0
0
0
0
0
0
0
0
1
0
0
0
0
0
0
0
0
0
0
0
0
0
0
0
0
0
0
0
0
0
0
0
0
0
0
0
0
0
0
0
0
1
0
0
0
0
0
0
0
0
0
0
0
0
0
0
0
0
0
0
0
0
0
0
0
0
0
0
0
0
0
0
0
0
0
0
0
0
0
0
0
0
0
0
0
0
0
0
0
1
0
0
0
0
0
0
0
0
0
0
0
0
0
0
0
0
0
0
0
0
0
0
0
0
0
0
0
0
0
0
0
0
0
0
0
0
0
0
0
0
0
0
0
0
0
0
0
0
0
0
1
0
0
0
0
0
0
0
0
0
0
0
0
0
0
0
0
0
0
0
0
0
0
0
0
0
0
0
0
0
0
0
0
0
0
0
0
0
0
0
0
0
0
0
0
0
0
0
0
0
0
0
0
0
0
0
0
0
1
0
0
0
0
0
0
0
0
0
0
0
0
0
0
0
0
0
0
0
0
0
0
0
0
0
0
0
0
0
0
0
0
0
0
0
0
0
0
0
0
0
0
0
0
0
0
0
0
0
0
0
0
0
0
0
0
0
0
0
0
0
0
0
0
0
0
0
0
0
0
0
0
0
0
0
0
0
0
0
0
0
0
0
0
0
0
0
0
0
0
0
0
0
0
0
0
0
0
0
0
0
0
0
0
0
0
0
0
0
0
0
0
0
0
0
0
0
0
0
0
0
0
0
0
0
0
0
0
0
0
0
0
1
0
0
0
0
0
0
0
0
0
0
0
0
0
0
0
0
0
0
0
1
0
0
0
0
0
0
0
0
0
0
0
0
0
0
0
0
0
0
0
0
0
0
0
0
0
0
0
0
0
0
0
0
0
0
0
0
0
0
0
0
0
0
0
0
0
0
0
0
0
0
0
0
0
1
0
0
0
0
0
0
0
0
0
0
0
0
0
0
0
0
0
0
0
0
0
0
0
1
0
0
0
0
0
0
0
0
0
0
0
0
0
0
0
0
0
0
0
1
0
0
0
1
0
0
0
0
0
0
0
0
0
0
0
0
0
0
0
0
0
0
0
0
0
0
0
0
0
1
0
0
0
0
0
0
0
1
0
0
0
0
0
0
0
0
0
0
0
0
0
0
0
0
0
0
0
0
0
0
0
0
0
0
1
0
0
0
0
0
0
0
1
0
0
0
0
0
0
1
0
0
0
0
0
0
0
0
0
0
0
0
0
0
0
0
0
0
0
0
0
0
0
0
0
0
0
0
0
0
0
0
0
0
0
0
0
0
1
0
0
0
0
0
1
0
0
0
0
0
0
0
1
0
0
0
0
0
0
0
0
0
0
0
0
0
1
0
0
0
0
0
0
0
0
0
0
0
0
0
0
0
0
0
0
0
0
0
0
0
0
0
0
0
0
0
0
0
0
0
0
0
0
0
0
0
0
0
0
0
0
0
0
0
0
0
0
0
0
0
1
0
0
0
0
0
0
0
0
0
0
0
0
0
0
0
0
0
0
0
1
0
0
0
0
0
0
0
0
0
1
0
0
0
0
0
0
0
0
0
0
0
0
0
0
0
0
0
0
0
0
0
0
0
0
0
0
0
0
0
1
0
1
0
0
0
0
0
0
0
0
0
0
0
0
0
0
0
0
0
0
0
0
0
0
0
0
0
0
0
1
0
0
0
1
0
0
0
0
0
0
0
0
0
0
0
0
0
0
0
0
0
0
0
0
0
0
0
0
0
0
0
0
1
0
0
0
0
0
0
0
0
0
0
0
0
0
0
0
0
0
0
0
0
0
0
0
0
0
1
0
0
0
0
0
0
0
0
0
0
0
0
0
0
0
0
0
0
0
0
0
0
0
1
0
0
0
0
0
0
1
0
0
0
0
0
0
0
0
0
0
0
1
0
0
0
0
0
0
0
0
0
0
0
0
0
0
0
0
0
0
0
0
1
0
0
0
0
0
0
0
0
0
0
0
1
0
0
0
0
0
0
0
0
0
0
0
0
0
0
0
0
0
0
0
0
0
1
0
0
0
0
0
0
0
0
0
1
1
0
1
0
1
0
0
0
0
0
0
0
0
0
0
0
1
0
0
0
0
0
1
1
0
0
0
0
0
0
1
0
0
0
0
0
1
1
1
0
0
0
0
0
0
0
0
0
0
0
0
1
1
0
0
1
0
0
0
0
0
1
0
0
0
1
0
1
0
0
0
0
0
0
0
1
0
0
0
0
0
0
0
1
0
0
1
0
0
0
0
0
0
0
0
0
0
0
0
0
0
0
1
0
0
0
0
0
0
0
0
0
0
0
0
0
0
0
0
0
0
0
0
0
0
0
0
0
0
0
0
0
0
0
0
0
0
0
0
1
0
0
0
0
0
0
1
0
0
0
1
0
0
0
0
0
0
0
0
0
0
0
1
0
0
0
0
0
0
0
0
0
0
0
0
0
0
0
0
0
0
0
0
0
0
0
0
0
0
0
0
0
0
0
0
0
0
0
0
0
0
0
0
1
1
0
0
0
0
0
0
0
0
0
0
0
0
0
1
0
0
0
0
0
0
0
0
0
0
0
0
0
0
0
0
0
0
0
0
0
0
0
0
0
0
0
0
0
0
0
0
0
0
0
0
0
0
0
0
0
0
0
0
0
0
0
0
0
0
0
0
0
0
0
0
0
0
0
0
0
0
0
0
0
0
0
0
0
0
0
0
1
1
0
0
0
0
0
0
0
0
1
0
0
0
0
0
0
0
0
0
0
0
0
0
0
0
0
0
0
0
0
0
0
0
1
0
0
0
0
0
0
0
0
0
0
0
0
0
0
0
0
1
0
0
0
0
0
0
0
0
0
0
0
0
0
0
0
0
0
0
0
0
0
0
0
0
0
0
0
0
0
0
0
0
0
0
0
0
0
0
0
0
0
0
0
0
0
0
0
0
0
0
0
0
0
0
0
0
0
0
0
0
0
0
0
0
0
0
0
0
0
0
0
0
0
0
0
0
0
0
0
0
0
0
0
0
0
0
0
0
0
0
1
1
0
0
0
0
0
1
0
0
0
0
0
0
0
0
0
0
0
0
1
0
0
0
0
0
0
0
0
0
0
0
0
0
0
0
0
0
0
0
0
0
0
0
0
0
0
0
0
0
0
0
0
0
0
0
0
0
0
0
0
0
0
0
0
0
0
0
0
0
0
0
0
0
1
0
1
0
0
0
0
0
0
0
0
0
0
0
0
0
0
0
0
0
0
1
0
0
0
0
0
0
0
0
0
0
0
0
0
0
0
0
0
0
0
0
0
0
0
0
0
0
0
0
0
0
0
0
0
0
0
0
0
0
0
0
0
0
0
0
0
0
0
0
0
0
0
0
0
0
0
0
0
0
0
0
0
0
0
0
0
0
0
0
0
0
1
0
0
0
0
0
0
0
0
0
0
1
0
0
0
0
0
0
0
0
0
0
0
0
0
0
0
0
0
0
0
0
0
0
0
0
0
0
0
0
0
0
0
0
0
0
0
0
0
1
0
0
0
0
0
0
0
0
0
0
0
0
0
0
0
0
0
0
0
0
0
0
0
0
0
0
0
0
0
0
0
0
0
0
0
0
0
0
0
0
0
0
0
0
0
0
0
0
0
0
0
0
0
0
0
0
0
0
0
0
0
0
0
0
0
0
0
0
0
0
0
0
0
0
0
0
0
0
0
0
0
1
0
0
0
0
0
0
0
0
0
0
0
0
0
0
0
0
0
0
0
0
0
0
0
0
0
0
0
0
0
0
0
0
0
0
0
0
0
0
0
0
0
0
0
0
0
0
0
0
0
0
0
0
0
0
0
0
0
0
0
0
0
0
0
0
0
0
0
0
0
0
0
0
0
0
0
0
0
0
0
0
0
0
0
0
0
0
0
0
0
0
0
0
0
0
0
0
0
0
0
0
0
0
0
0
0
0
0
0
0
0
0
0
0
0
0
0
0
0
0
0
0
0
0
1
0
0
0
0
0
0
0
0
0
0
0
0
0
0
0
0
0
0
0
0
0
0
0
0
0
0
0
0
0
0
0
0
0
0
0
0
0
0
0
0
0
0
0
0
0
0
0
0
0
0
0
0
0
0
0
0
0
0
0
0
0
0
0
0
0
0
0
0
0
0
0
0
0
0
0
0
0
0
0
0
0
1
0
0
0
0
0
0
0
1
0
0
0
0
0
0
0
0
0
0
0
0
0
0
0
0
0
0
0
0
0
0
0
0
0
0
0
0
0
0
0
0
0
0
0
0
0
1
0
0
0
0
0
0
0
0
0
0
0
0
0
0
0
0
0
0
0
0
0
1
0
0
0
0
0
0
0
0
0
0
0
0
1
1
0
0
0
0
0
0
0
0
0
0
0
0
0
0
0
1
1
0
1
0
0
0
0
0
0
0
0
0
1
0
0
0
0
0
0
1
0
0
0
0
0
0
0
0
0
0
1
0
0
0
0
1
0
1
0
0
0
0
0
0
0
1
0
0
0
1
0
0
0
1
0
1
1
0
0
1
1
0
0
0
1
0
0
0
1
0
0
0
0
0
0
0
0
0
1
0
0
0
0
0
0
1
0
0
0
0
0
0
0
0
0
0
0
0
0
0
0
0
0
0
0
0
0
0
0
0
0
0
0
1
0
0
1
0
0
0
0
0
0
0
0
0
0
0
0
0
0
0
0
0
0
1
0
0
1
0
0
0
0
0
0
0
0
0
0
0
1
0
0
1
0
0
0
0
0
0
0
0
0
0
0
1
1
0
0
0
0
0
0
0
0
0
0
0
0
1
0
0
0
0
0
0
0
0
0
0
0
0
0
0
0
0
0
1
0
0
0
0
0
0
0
0
0
0
0
0
0
0
0
0
0
1
0
0
0
0
0
0
0
0
0
0
0
0
0
0
0
0
0
0
0
0
0
0
0
0
0
0
0
0
0
0
0
0
0
0
0
0
0
0
0
0
1
0
0
0
0
0
0
0
0
0
0
0
0
0
0
0
0
0
0
0
0
0
0
0
0
0
0
0
0
0
0
0
0
0
0
0
0
0
0
0
0
0
0
0
0
0
1
0
0
0
0
0
0
0
0
0
0
0
0
0
0
0
0
0
0
0
0
0
0
0
0
0
0
0
0
0
0
0
0
0
0
0
0
0
0
0
0
0
0
0
0
0
0
0
1
0
0
0
0
0
0
0
0
0
0
1
0
0
0
0
0
0
0
0
0
0
0
0
0
0
0
1
0
0
1
0
0
0
0
0
0
0
0
0
0
0
0
0
0
0
0
0
0
0
0
0
0
0
1
0
0
0
0
0
0
0
0
0
0
0
0
0
0
0
0
0
0
0
0
0
0
0
0
0
0
0
0
0
0
0
0
0
0
0
1
0
0
0
0
0
0
0
0
0
0
0
0
0
0
0
0
0
0
0
0
0
0
0
0
0
0
0
0
0
0
0
0
0
0
0
0
0
0
0
0
0
0
0
0
0
0
0
0
0
0
0
0
0
0
0
0
0
0
0
0
0
0
0
0
0
0
0
0
0
0
0
0
0
0
0
0
1
0
0
0
0
0
0
0
0
0
0
0
0
0
0
0
0
0
0
0
0
0
0
0
0
0
0
0
0
0
0
0
0
0
0
0
0
0
0
0
1
0
0
0
0
0
0
0
0
0
0
0
0
1
1
0
0
0
0
0
0
0
0
0
0
0
0
0
0
0
0
0
0
0
0
0
0
0
0
0
0
0
0
0
0
0
0
0
0
0
0
0
0
0
0
0
0
0
0
0
0
0
0
0
0
0
0
0
0
0
0
0
0
0
0
0
0
0
0
0
0
0
0
0
0
0
0
0
0
0
0
0
0
0
0
0
0
0
0
0
0
0
0
0
0
0
0
0
0
0
0
0
0
0
0
0
1
0
1
0
0
0
0
0
0
0
1
1
1
1
0
0
0
0
0
0
0
0
0
0
0
0
0
0
0
0
0
0
0
0
0
0
0
0
0
0
0
0
1
1
0
0
0
0
0
0
0
0
0
0
0
0
0
0
0
0
0
0
1
0
0
0
0
0
0
0
1
1
0
1
1
0
0
1
0
0
0
0
0
0
0
1
0
1
0
0
0
0
0
0
0
0
0
0
0
0
0
0
0
0
0
0
0
0
0
0
0
0
0
0
0
1
1
0
0
0
1
1
0
0
0
0
1
0
0
1
0
1
0
0
0
0
0
1
0
0
0
1
0
0
0
0
0
0
0
0
0
0
0
0
0
0
0
0
0
0
0
0
0
0
0
0
0
0
0
1
0
0
0
0
0
0
1
0
0
0
0
0
0
0
0
0
0
0
0
0
0
0
0
0
0
0
0
0
0
0
0
0
0
0
0
0
1
0
1
0
0
0
0
0
0
0
1
0
0
0
0
0
0
0
0
0
0
0
1
0
0
0
0
0
0
0
0
0
1
0
0
0
0
0
0
0
1
0
0
0
0
0
0
0
1
0
0
0
0
0
0
0
0
0
0
0
0
0
0
0
0
0
0
0
1
0
1
0
0
0
0
0
1
0
0
0
0
0
0
0
0
0
0
0
0
0
0
0
0
0
0
0
0
0
0
0
0
0
1
0
1
0
0
0
0
0
0
0
0
0
1
0
0
0
0
0
1
0
0
0
0
0
0
0
0
0
0
0
0
0
0
0
1
0
0
0
0
0
0
0
0
1
0
0
0
0
0
0
0
0
0
0
0
0
0
0
0
0
0
0
0
0
0
0
0
0
0
0
0
0
0
0
1
0
0
0
0
0
0
0
0
0
0
0
0
0
0
0
0
1
0
0
0
0
0
0
0
0
1
0
0
0
0
0
0
0
0
0
1
0
0
0
0
0
1
0
0
0
0
0
0
0
0
0
0
0
0
0
0
0
0
0
0
0
1
0
0
0
0
0
0
1
0
0
0
0
0
0
0
0
1
0
0
0
0
0
0
0
0
0
0
0
0
0
0
1
0
0
1
0
0
0
1
0
0
0
0
0
0
0
0
0
0
0
0
0
0
0
0
1
0
0
0
0
0
0
0
0
0
0
1
0
1
0
0
0
0
0
0
1
0
0
0
0
0
0
0
0
0
0
0
0
0
0
0
0
0
0
0
0
0
0
0
0
0
0
0
1
1
0
0
0
0
0
0
1
0
0
0
0
0
0
0
0
0
0
0
0
0
1
0
0
0
0
0
0
0
1
0
0
0
0
0
0
0
0
0
0
0
0
0
0
0
0
0
0
0
0
0
0
0
0
0
0
0
1
0
0
0
0
0
0
0
0
0
0
1
0
0
1
0
0
0
0
0
0
0
0
0
0
0
0
0
0
0
0
0
0
0
0
0
0
0
0
0
0
0
0
0
1
0
0
0
0
0
0
0
1
0
0
0
0
0
0
0
1
0
0
0
0
1
0
0
0
0
0
0
0
0
0
0
0
1
0
1
0
0
0
1
0
				</DataArray>
				<DataArray type="Float64" Name="h" NumberOfComponents="1" Format="ascii">
0.8111113723
0.8111053266
0.8108490022
0.8061111854
0.8134739648
0.8116722054
0.8088826471
0.8060598139
0.8096972425
0.8028559070
0.8050688230
0.8088562233
0.8082985232
0.8034828282
0.8071393512
0.8072489268
0.8064075886
0.8042871262
0.8099195404
0.8032618748
0.8118281944
0.8112176080
0.8127234133
0.8156232694
0.8048534513
0.8083009174
0.8129843780
0.8225625284
0.8151802240
0.8021478984
0.8018836831
0.8140531519
0.8106248636
0.8103014210
0.8253270329
0.8179028584
0.8165556515
0.8138910317
0.8194018505
0.8147736723
0.8160571155
0.8248015666
0.8139865272
0.8163050548
0.8185117758
0.8204749861
0.8156328165
0.8289776419
0.8901846775
0.8764216025
0.8148624123
0.8195330220
0.8179148159
0.8409798127
0.8234656611
0.8148098498
0.8222163903
0.8377310172
0.8448343121
0.8400520306
0.8550991061
0.8481591317
0.8863657303
0.8209672033
0.8186780818
0.8266598790
0.8627539406
0.8727296070
0.8485222495
0.8421573454
0.8433825212
0.8256223477
0.8147844666
0.8478819395
0.8467790039
0.8172818418
0.8393571046
0.8550249550
0.8329642702
0.8187933447
0.8688393293
0.8299415161
0.9220879218
0.8592728814
0.8167804097
0.8207425036
0.8761842800
0.8462488910
0.8603474410
0.9123298936
0.8829233532
0.8193712777
0.8625035781
0.8998235064
0.8274061455
0.8241899103
0.8340679706
0.8177069400
0.8217682165
0.8772465251
0.9151608939
0.8680527873
0.8368932987
0.8317819796
0.8007086020
0.8507881001
0.8240642642
0.9002912806
0.8561917066
0.8312748744
0.8898706268
0.9035264333
0.8719415671
0.8849123906
0.8476913992
0.9128035045
0.8404765922
0.8018408052
0.9022734512
0.8594515069
0.8006878872
0.8384937062
0.8184988572
0.7970350261
0.8743671202
0.9033364463
0.8508490238
0.7972038402
0.9067170828
0.9138257730
0.8988502298
0.8285872593
0.8622328506
0.9141399528
0.7997211101
0.8979807859
0.8061526501
0.9188193416
0.8840795879
0.8102082561
0.7982694019
0.7976828760
0.9056669347
0.8124419524
0.8213849434
0.8917524164
0.8077583054
0.9309905459
0.7981933097
0.9370731598
0.8050110950
0.9209495197
0.9239008973
0.9380233343
0.8771927145
0.9230558119
0.9337191377
0.7999936677
0.9361940755
0.7964303866
0.8124748344
0.9305485282
0.8072024003
0.7973674130
0.7987908403
0.9236853592
0.8142836659
0.8102337201
0.7961771035
0.9254501188
0.9310382186
0.7957458520
0.9365153644
0.8005000591
0.8157007425
0.9446565406
0.8144138573
0.9338669545
0.9435510454
0.7980448914
0.9216465379
0.8161746983
0.7967265765
0.8193091340
0.7942817495
0.7964693017
0.8153974874
0.9413522874
0.7964991680
0.7973699357
0.8162759165
0.9427859999
0.7962303410
0.8158737359
0.9441192387
0.9309526671
0.8000568911
0.8164369341
0.8161297386
0.9401504242
0.7968718027
0.8216815434
0.7967312874
0.9412485349
0.8170950251
0.7990251435
0.8109115354
0.8058870249
0.8164494017
0.8148542777
0.8170752998
0.7965141489
0.8000059300
0.7999336407
0.8083877537
0.8171899457
0.8132312342
0.8004582431
0.8168543225
0.7971956409
0.8179329357
0.9025691703
0.8161832766
0.8724524705
0.8232861925
0.9377905553
0.9243140884
0.8431557461
0.8193905585
0.9149122201
0.9394649166
0.8879791789
0.8314613360
0.9392729713
0.9350471802
0.8573538421
0.8178007651
0.8143339788
0.7980442043
0.8180106985
0.8203488278
0.8090618779
0.8016624838
0.8165681450
0.8076975341
0.8130457251
0.8009269541
0.8177460658
0.8117632260
0.8041688495
0.8165782910
0.8200146261
0.8027059551
0.8181086585
0.8208639519
0.8025780682
0.8150911141
0.8104707836
0.7999443325
0.8827014474
0.8191841816
0.8242253454
0.8404009561
0.8690612854
0.8273711574
0.9332341610
0.9367404455
0.8200655403
0.9378739442
0.9006393648
0.9239363919
0.8174218724
0.9115553104
0.8510953520
0.8664823268
0.8225392328
0.8301322256
0.8538015988
0.8851705209
0.8214780447
0.9218465282
0.9372364821
0.9359793011
0.9344798100
0.9139008331
0.8981455769
0.8376083195
0.8185295898
0.8039495635
0.8049602513
0.8164261226
0.8217888386
0.8130107560
0.8112572520
0.8226861644
0.8261869993
0.8197776631
0.8158467385
0.8078437535
0.8025888609
0.8058303267
0.8139507368
0.8212432493
0.8275255336
0.8228363316
0.8208541727
0.8251979824
0.8183798114
0.8061301453
0.8286826634
0.8480884633
0.8407584603
0.9359431340
0.8254019088
0.9232421422
0.8793537442
0.8240986473
0.9098999410
0.9358010978
0.8206771406
0.8668986878
0.8281729912
0.8983916459
0.9328296033
0.8325681067
0.8358515534
0.8524628583
0.9348563239
0.8629130057
0.8954961881
0.9211365392
0.9342698072
0.9357105231
0.8294678236
0.8826501274
0.8246968425
0.9123885773
0.8207858893
0.9383999986
0.8290009379
0.8348077722
0.8246852247
0.8075099086
0.8287927036
0.8177426547
0.8238874872
0.8153737600
0.8091357662
0.9306714462
0.8613439677
0.8369504209
0.8887209337
0.8182088731
0.8099443937
0.9403245403
0.8265976704
0.8750720335
0.8329956551
0.8229276549
0.9084770603
0.9109098128
0.9391817573
0.8058425908
0.8274144366
0.8308122885
0.8208853873
0.8664670214
0.8696491786
0.8699317586
0.8097657649
0.8888271775
0.9272062350
0.8121242117
0.9357397362
0.8770244535
0.8672729968
0.9327113768
0.8324449467
0.9225902570
0.8367293982
0.8339058998
0.9079024761
0.9346447160
0.8311193884
0.8970370120
0.8261431067
0.8326827131
0.8486463099
0.8446570117
0.8688925638
0.9351903745
0.8391954565
0.8616485877
0.8830815182
0.9344528211
0.8819690430
0.8385700951
0.8512517018
0.8575848614
0.8796852125
0.8385651000
0.9200484493
0.8770062864
0.8930002614
0.8815302755
0.9343280800
0.9111179043
0.8311496210
0.8383316129
0.8734417315
0.8544198259
0.8624250341
0.8938011805
0.8723176477
0.8265522597
0.9362287598
0.9193784619
0.8318082711
0.9000039446
0.8500944106
0.8760164984
0.8723004201
0.8203770723
0.9216521439
0.9413391911
0.8696029557
0.9354144529
0.8122099483
0.9180639743
0.8385657346
0.8638659425
0.9460568457
0.8983899271
0.9344765386
0.8810185534
0.8784668602
0.9440953670
0.9072026614
0.9340494949
0.8834919304
0.8820665360
0.9114955876
0.8235586802
0.9281569493
0.8871666291
0.8292957601
0.8531763771
0.8945907834
0.8817507595
0.9270594854
0.9095012905
0.9342218816
0.8097743307
0.8515656576
0.8362955422
0.8722977353
0.9502443264
0.9407825905
0.8921505721
0.9509283280
0.8142870528
0.8413066157
0.8340133701
0.9337427763
0.8341114778
0.8773579990
0.8595671478
0.8403004188
0.8847298206
0.8265000561
0.9329994584
0.8410223155
0.9066216464
0.8472105550
0.8446012408
0.8523832092
0.9606801390
0.8781196688
0.8163551133
0.8353731211
0.8401815040
0.8529838784
0.8302756179
0.9344092927
0.9644894348
0.9588676833
0.9191752604
0.8454699380
0.8641863675
0.8605731271
0.8951901120
0.8404971749
0.9672086591
0.8194306081
0.8385668252
0.8635229997
0.8376278863
0.9711418855
0.8920819778
0.8481224591
0.9398799600
0.9482127993
0.8735932831
0.8575810979
0.8796794661
0.8443014624
0.8440139910
0.8141245943
0.8567480900
0.9055020842
0.8454729857
0.8499860436
0.9208347462
0.8410165022
0.8885711984
0.8163536499
0.9211318574
0.8815760844
0.8194324814
0.8474410904
0.8499887958
0.8856221919
0.8898335270
0.9396769371
0.8390915720
0.9374221909
0.8549597549
0.9021632224
0.8867798058
0.8570099278
0.9185580321
0.8340100313
0.9007717659
0.8303523251
0.8264981542
0.8930250362
0.8194280441
0.8376232491
0.8141245282
0.8867773523
0.8529902707
0.8918825926
0.8753418271
0.8163035131
0.8857778190
0.8434106068
0.8460468697
0.8472083494
0.8895507590
0.8689630335
0.9517734815
0.8810051794
0.8346786534
0.8927494877
0.8226562987
0.8924206954
0.8596644606
0.8615718187
0.9347631174
0.9448836351
0.8542522525
0.8556430561
0.9407867581
0.8302732493
0.8931482936
0.9072568596
0.8442959893
0.8595707461
0.9158841255
0.9342488597
0.8510873581
0.9013304026
0.9409773972
0.9102591087
0.8501066242
0.8255460478
0.8560643663
0.8919754862
0.9208265551
0.8654699390
0.8536881796
0.8817847279
0.9398736110
0.8612829075
0.8978942649
0.8383189311
0.9340634033
0.8938549276
0.8531846429
0.8753651722
0.9354375188
0.8961420934
0.8681827439
0.8954555154
0.8818002127
0.8515792152
0.8680392392
0.8217967523
0.9672500615
0.8815436816
0.8857375452
0.8622470887
0.9612976438
0.8486611579
0.8696147069
0.8872014520
0.8976869290
0.9620746749
0.9194174983
0.8618710049
0.8955324088
0.8335854226
0.9565331033
0.8694829096
0.8919734817
0.8434313607
0.9187665982
0.8303499780
0.8510824413
0.8570077493
0.8390882398
0.9495878733
0.8929208536
0.8293309329
0.8194313409
0.8582833177
0.8687282778
0.9798559987
0.8226541193
0.8879019850
0.8976854055
0.8745921785
0.8922566068
0.8596642848
0.8474363413
0.8542482473
0.8346759440
0.9640903475
0.9841679893
0.9458349572
0.9068941270
0.8163029833
0.8974324719
0.8982731183
0.8699507081
0.9650443568
0.9490296364
0.8927482732
0.8920067322
0.9658207259
0.8704635621
0.8584439044
0.8282662192
0.8422386655
0.8664815460
0.8668924447
0.8724549832
0.8434065449
0.9522723875
0.8532753170
0.8249122670
0.8371581769
0.9323581643
0.9731555964
0.9861664567
0.9384714128
0.8636372886
0.8630366446
0.8324930780
0.8476344448
0.9797128077
0.9840979073
0.8930221167
0.8954948707
0.8961709991
0.8805897502
0.9672673451
0.8804561527
0.8861037103
1.0010603992
0.9972125177
0.8857179600
0.8880001306
0.9764412064
0.8884968108
0.8906870077
0.8761050871
0.9890169897
0.9983329129
0.9957915163
0.8835435203
0.8775372941
0.8705145895
0.8727469311
0.8785092945
0.9860820996
0.9960380745
0.9577101146
0.9732820447
0.8649071911
1.0032852959
1.0076057911
0.8669786737
0.9841698855
0.9742801995
0.8618679499
1.0100688567
0.8810020671
0.9940760244
0.8651497110
0.8717130195
1.0095074046
0.8694802402
1.0048695308
0.9934747490
0.8556396720
0.9858747119
0.8571637705
0.8596565038
0.9807744327
0.9771781341
0.8425010834
0.8109492421
0.8112573231
0.8112542834
0.8109385160
0.8082109098
0.8088539882
0.8050629118
0.8074525463
0.8134859781
0.8116793177
0.8134676272
0.8134720014
0.8096924766
0.8071369829
0.8088800600
0.8040308417
0.8074574929
0.8082121873
0.8073911762
0.8044116612
0.8061187051
0.8108481188
0.8099300116
0.8021351222
0.8073019176
0.8082206353
0.8060652030
0.8082933541
0.8048439318
0.8028703835
0.8090542039
0.8082997504
0.8130167294
0.8104433780
0.8124054727
0.8040413005
0.8018700602
0.8073860259
0.8102973420
0.8106237132
0.8140693726
0.8127697474
0.8147753464
0.8194358189
0.8064166752
0.8072576897
0.8140042917
0.8194415553
0.8082238098
0.8073396365
0.8160716304
0.8034934332
0.8032761810
0.8130163609
0.8127002966
0.8306580030
0.8112104695
0.8182308446
0.8090548592
0.8118289283
0.8123933624
0.8114353193
0.8247694195
0.8289705149
0.8104477793
0.8185164782
0.8148586456
0.8156602874
0.8225157799
0.8156178326
0.8151525350
0.8222491276
0.8176683115
0.8129788006
0.8206091302
0.8052591825
0.8194025945
0.8270996249
0.8233417869
0.8127692138
0.8179414180
0.8306625011
0.8865236375
0.8759952027
0.8114236530
0.8182327056
0.8215150579
0.8247317270
0.8178913438
0.8187202648
0.8138661020
0.8288635523
0.8253331369
0.8863236925
0.8726827241
0.8274841140
0.8165577926
0.8209877088
0.8270821128
0.8362603836
0.8384534768
0.8162636732
0.8478649368
0.8384353082
0.8256309662
0.8147968879
0.8431120118
0.8159805552
0.8161422154
0.8206100274
0.8547950881
0.8233471111
0.8247692205
0.8393448986
0.8433709238
0.8498489303
0.8467625807
0.8176365318
0.8163293108
0.8485122432
0.8206462576
0.8053311739
0.8421501205
0.8215130956
0.8288516833
0.8230117451
0.8274703576
0.8628731948
0.8328273311
0.8722068552
0.8902227450
0.8195083849
0.8760449679
0.8204328635
0.8299676080
0.8592342149
0.8309578121
0.8865733387
0.8764695752
0.8551060163
0.8481630550
0.8163032798
0.8614847220
0.8498639297
0.8448493026
0.8376163670
0.8384535940
0.8168512518
0.8160017104
0.8362726724
0.8206519460
0.8306362387
0.8234315746
0.8498010993
0.8431197863
0.8548018505
0.8148036974
0.8329565074
0.8471610003
0.8159608383
0.8409840195
0.8384618495
0.8400692507
0.8193899561
0.8377409611
0.8161088587
0.8624928017
0.8628947369
0.8317746175
0.8218047309
0.8309480524
0.8161633041
0.8328167652
0.8680493580
0.8589549833
0.8701799852
0.8505178492
0.8266217523
0.9151845445
0.8627949512
0.8274686745
0.8177304159
0.8623605208
0.8242211074
0.8331102619
0.8722708929
0.8772416781
0.8507502847
0.8229803481
0.9243346360
0.8329419128
0.8561731146
0.9035015298
0.8614939854
0.8471761963
0.8719246305
0.8306986592
0.8172754532
0.8853558574
0.8376138319
0.8550389632
0.8159901328
0.8830063506
0.8168430030
0.8898066145
0.8313106032
0.8498137314
0.8701932128
0.9242819405
0.8383347187
0.8623616826
0.8207301355
0.8385136413
0.8583086562
0.8274749907
0.8043071069
0.8331364627
0.8505213386
0.8167675720
0.8187763094
0.8761876381
0.9220323789
0.8688418663
0.8405002228
0.8329722600
0.8590105697
0.8006691844
0.8462672547
0.8161521915
0.8830104288
0.8286000721
0.8752958604
0.8042751385
0.9033309269
0.8695212019
0.8863259820
0.8603664389
0.8273893629
0.8998711850
0.9112296593
0.9123177342
0.8829307061
0.8995546353
0.8366055950
0.8743319110
0.8508343628
0.8854537060
0.9138564524
0.8368739515
0.9148084984
0.8700682710
0.8383195872
0.8043597188
0.8583319400
0.8889966214
0.7997030417
0.8979866317
0.8622030298
0.8007283674
0.8340847009
0.8213930871
0.8613028890
0.7976631963
0.8719335268
0.8042921173
0.9112050366
0.8849341138
0.9003050095
0.8048259877
0.8366107574
0.8863389631
0.8476915935
0.7981746490
0.8753805495
0.9056894535
0.7966615816
0.9127699195
0.8695420061
0.8917587454
0.8995610389
0.8240677909
0.7987842207
0.8175221739
0.8561693504
0.9250958460
0.9147846725
0.8890299992
0.8036731961
0.9131133551
0.9121846224
0.8845407795
0.8594772899
0.8702079435
0.9209695033
0.8018575555
0.8919784443
0.9022728886
0.8009207203
0.8049900951
0.9239264023
0.8771965088
0.8048463241
0.7966802369
0.8102280010
0.7987741200
0.8719790125
0.9324435709
0.7988032442
0.7970002670
0.9348592648
0.8478374382
0.8613941993
0.7970544973
0.9066998829
0.8124712674
0.7988807661
0.8184980612
0.8988400168
0.7993988414
0.8071895990
0.8997736403
0.9305851290
0.7972219419
0.9362244093
0.8845356644
0.8061733990
0.9141208270
0.9271531562
0.8423357521
0.9121599773
0.9181726803
0.9187922564
0.9365393942
0.8006240342
0.8027210113
0.8840747561
0.8009358963
0.8563287037
0.8036930648
0.9250716283
0.8175200169
0.8919721315
0.9254855502
0.9000103509
0.9130937996
0.9310606461
0.8004834030
0.9370423862
0.7967139773
0.8356943115
0.7988997932
0.7970169707
0.9217678246
0.9315037161
0.9385350656
0.8124420524
0.9309504201
0.8077668203
0.7980308464
0.9348244613
0.7994160435
0.8479085518
0.7980082974
0.7982862097
0.9216917030
0.8997612397
0.8144139739
0.8935100807
0.8102132408
0.9324097554
0.7968298150
0.7964828110
0.9230127490
0.9336927740
0.8027390497
0.8296871685
0.9271227730
0.7985113521
0.8006402984
0.8423763465
0.7942669141
0.9181364947
0.9380018174
0.8000095955
0.8999976867
0.8154091960
0.8252745578
0.9441401789
0.8142776138
0.7968452897
0.9217212805
0.9310028502
0.7980205851
0.9385080913
0.8934990966
0.9288199305
0.7959808608
0.9314732979
0.8357148186
0.7959328526
0.9428063515
0.9085272292
0.7973825153
0.9236390318
0.8158855612
0.9355606403
0.7964444286
0.8216691414
0.9432958996
0.7957613594
0.7967194718
0.8156964720
0.9412694255
0.8297136182
0.7961944352
0.7968620999
0.7985301808
0.8161370461
0.9422221237
0.9435297337
0.7998509461
0.7959950783
0.7959492612
0.7965012684
0.9355234114
0.9287743551
0.7982267700
0.9290777960
0.8161684364
0.9085109445
0.9446354098
0.8252902299
0.7970665432
0.7966104820
0.9338231608
0.7999971788
0.8164522706
0.8162687873
0.9394852328
0.9432768394
0.7973805346
0.9422031428
0.9396258498
0.9413637259
0.8193137946
0.7964817833
0.9413296900
0.8179367500
0.8009183718
0.8130419091
0.8024583814
0.8076843270
0.8164312472
0.7966196028
0.8179069414
0.7971546963
0.8165698509
0.8036079077
0.7998648270
0.8178103648
0.7962412626
0.7971079098
0.9290185134
0.8000682819
0.7985114630
0.8104652185
0.8052675831
0.8181155485
0.8150889221
0.8026964913
0.8177555562
0.7970766117
0.7980332869
0.7982366161
0.9375939646
0.8193569051
0.8170902859
0.9396029267
0.8980425823
0.8174280615
0.9413470716
0.8663145917
0.8214701984
0.9360060190
0.9218813213
0.9308708624
0.8375586193
0.8200610357
0.9115291320
0.9401336952
0.8825257584
0.8273545230
0.9378872648
0.9289325071
0.9332823311
0.8509914849
0.8170645938
0.8164237703
0.8065265692
0.7972059958
0.8197832196
0.8217972709
0.8036226463
0.8179027672
0.8024741457
0.7986873341
0.8222499376
0.8112537249
0.8039409958
0.7971664104
0.8148519312
0.8059059561
0.8109163414
0.7990336170
0.8168423000
0.8139488889
0.8061173795
0.7971169557
0.8183801569
0.8212561917
0.8004653369
0.8171832146
0.8228341306
0.8085418583
0.8007627770
0.8132335495
0.8052855454
0.8083985624
0.7985218618
0.8880984220
0.8206882322
0.8250572238
0.8246839408
0.8358327987
0.8627579450
0.8314974670
0.9288749820
0.9350061812
0.9348771552
0.8193967892
0.9392592979
0.9306146562
0.8953376650
0.9211359637
0.8161746952
0.9375691785
0.9149139302
0.8574719852
0.8726064390
0.8253844169
0.8281667778
0.8479996201
0.8791533622
0.8233071252
0.9242685662
0.9308147559
0.9359506025
0.8193591939
0.9377710552
0.9328667685
0.9098265683
0.9286634005
0.9026331064
0.8432164784
0.8207853731
0.8102871219
0.8016707802
0.7986976506
0.8074987008
0.8143367557
0.8203391356
0.8298305695
0.8153748038
0.8222592464
0.8090722029
0.8246936877
0.8287936838
0.8180048095
0.8065421303
0.8182078716
0.8099359209
0.8007728024
0.8036959388
0.8117666361
0.8200009726
0.8307988588
0.8125436733
0.8208614407
0.8085539152
0.8229305636
0.8274252787
0.8165780685
0.8041786979
0.8311288441
0.8539142918
0.8383302942
0.9372283313
0.8225491614
0.9200134387
0.8853482684
0.8261558130
0.9139417443
0.9286275675
0.9304103300
0.9343332388
0.8340124076
0.8191724346
0.8615417756
0.8301513341
0.8928387030
0.9344414762
0.8326704021
0.8404566269
0.8486023655
0.9367251453
0.8250743774
0.9283048081
0.8692258054
0.9007546197
0.9239170477
0.9327261744
0.9346413792
0.8338796397
0.8768634755
0.8242412852
0.9078003349
0.9305699180
0.9362113812
0.8638640494
0.8399767037
0.8999904660
0.8185310282
0.8102950307
0.9376826689
0.9356492533
0.8318164901
0.8697023582
0.8385612433
0.8226781300
0.8981610619
0.9216284456
0.9416956156
0.8049708367
0.8261816103
0.8298524642
0.8203782587
0.8265538911
0.8130118900
0.8624225600
0.8725757751
0.8784747646
0.8122058489
0.8797782740
0.9186476208
0.8147123941
0.9324783497
0.8584410037
0.8412919398
0.8897821659
0.8158480056
0.8078553475
0.9359448979
0.9397719353
0.8293002696
0.8732001997
0.8363005879
0.8208518902
0.9083187757
0.9134169126
0.9396562787
0.8037070967
0.8251855279
0.8275322963
0.8172199312
0.8235590644
0.8125452946
0.8620482129
0.8728687296
0.8693075508
0.8073192687
0.8881221994
0.9279073985
0.8142874049
0.8688090426
0.9343968676
0.8450494324
0.8828319917
0.8885115422
0.9303597059
0.8641368148
0.9342467482
0.8353755991
0.8399383507
0.8528337851
0.9191261495
0.8605765019
0.8854977583
0.8404748199
0.9282982259
0.8294874997
0.8755518571
0.9124659139
0.8787167995
0.9357106193
0.8341211264
0.8919690120
0.8240858375
0.8325771306
0.8525471075
0.8781672581
0.8440073930
0.8735972964
0.9337261575
0.8445801429
0.8670401863
0.8857408307
0.9329938355
0.8772640931
0.9303905212
0.8314272097
0.8350468961
0.8560101238
0.9281545771
0.8621690826
0.8838299219
0.8402832868
0.9232558458
0.8340398293
0.8815490426
0.8985382375
0.8847343921
0.9357926944
0.9065303106
0.8286975357
0.8407823794
0.8781243693
0.8523746992
0.8585557380
0.9358106997
0.8977078022
0.9308885266
0.8815802248
0.8697016672
0.8856282565
0.9018687798
0.8238871120
0.9371928261
0.9194052248
0.9226455355
0.9371793326
0.8877052746
0.8289930937
0.9019757968
0.8475747396
0.8725739168
0.8621028243
0.8678678940
0.8891989551
0.8177414629
0.9242709093
0.9417133519
0.8711963923
0.9347628760
0.9019464799
0.9185664650
0.9365015959
0.8091452578
0.8505122230
0.9186618264
0.8348070364
0.8664667693
0.8760196651
0.9517640719
0.9448753367
0.8621019395
0.9007233960
0.9462732047
0.8981611668
0.9356617689
0.9477444604
0.8147113544
0.8399978109
0.8797522342
0.8785980080
0.9413198303
0.8613491986
0.9424713443
0.9111632352
0.9180607464
0.9353069670
0.8812795142
0.8696477101
0.8802627181
0.9108088468
0.8208859550
0.9377034296
0.9295370063
0.9287384253
0.8880401140
0.8265941711
0.9109330653
0.8521857856
0.8774379522
0.8774412829
0.8942488835
0.8172172134
0.9306900118
0.9403420297
0.8843253991
0.9263016512
0.9085414635
0.9354823777
0.8073329078
0.8470861205
0.8810319745
0.9084861566
0.8329869848
0.8678671698
0.9495755456
0.9407919191
0.8699273291
0.8910676681
0.9439270005
0.8880986586
0.9279253879
0.9518913754
0.8121283207
0.8369608488
0.8731952469
0.8887248625
0.8307089550
0.9352000334
0.9565388506
0.9612985605
0.9281695039
0.8311086562
0.8401789736
0.8821014227
0.8621658731
0.9013357648
0.8606603336
0.8385751345
0.8815250848
0.9672491148
0.8200113131
0.8399352418
0.8234785206
0.9344506580
0.8729592198
0.8373784170
0.9658239397
0.9112059487
0.8500779951
0.9295180616
0.9543107442
0.8688042437
0.8512482484
0.8775973204
0.8775918346
0.8430103971
0.8392190089
0.8544557127
0.9588594392
0.8734370341
0.8874224887
0.8142420481
0.8324427428
0.8560572360
0.9000319750
0.8447439633
0.8538609701
0.8481294003
0.8429394673
0.9314653703
0.8271136163
0.9357439999
0.9620793775
0.9563271606
0.9226265735
0.8416592327
0.8673629312
0.8560070561
0.8959097254
0.8367463034
0.8874177288
0.9650418019
0.8168901443
0.8350440256
0.8228392637
0.9303648664
0.8681863029
0.8341496690
0.9675259449
0.8971673517
0.8447409487
0.9402748739
0.9462614049
0.8688884160
0.8528304682
0.8838245267
0.8640681422
0.8403471252
0.8450717703
0.8446609121
0.9580770866
0.8781633528
0.8115995436
0.8314249299
0.8470572017
0.8514159292
0.9078595375
0.8367978492
0.8500811263
0.8454918517
0.9211150887
0.8903743598
0.8200087098
0.8373721435
0.8877022320
0.8142429181
0.9194293362
0.8834887035
0.8514253800
0.8946298029
0.8794108428
0.8761107593
0.8218979558
0.8873179326
0.9449999627
0.8518862426
0.8842883778
0.8476415692
0.8454917493
0.8884992738
0.8842821238
0.8693061297
0.8891933718
0.8707517988
0.9242456765
0.9359743634
0.8885734050
0.8620513730
0.9450105466
0.8816814346
0.8430523228
0.9358052399
0.9134521295
0.8904747917
0.8504464394
0.8585504896
0.8263016557
0.9018602219
0.8887151866
0.8848685528
0.8939570880
0.9344652651
0.8627384325
0.8620479487
0.9384252047
0.9494796051
0.8728663107
0.9176160640
0.9527275094
0.8616704351
0.8581312978
0.9176114277
0.9347355789
0.8307067289
0.8963383667
0.8999837310
0.8338420404
0.8234771059
0.9272176609
0.8939892038
0.8168882812
0.8341456112
0.8898953957
0.8116040647
0.9108240522
0.8848653120
0.9021714317
0.8481347558
0.8931180486
0.8820615860
0.8779802925
0.8191475199
0.8880030759
0.8476811307
0.8500201617
0.8430052149
0.8913872903
0.8723200213
0.8921432830
0.8871623576
0.8717157535
0.9392006847
0.9374301309
0.9462848809
0.8834069199
0.8384200133
0.9281487084
0.8928167251
0.8533397983
0.8255117656
0.8942417588
0.9527207800
0.8898974477
0.8917087095
0.8644845846
0.8651526652
0.9424704019
0.9509349975
0.8588555617
0.8597302281
0.9270546161
0.9477465969
0.8271123887
0.8937553631
0.9095623017
0.8295081801
0.8228369704
0.9112301844
0.8403398496