<VTKFile type="UnstructuredGrid" version="0.1">
	<UnstructuredGrid>
		<Piece NumberOfPoints="1862" NumberOfCells="3498">
			<CellData>
				<DataArray type="Int32" Name="type" NumberOfComponents="1" Format="ascii">
0
0
0
0
0
0
0
0
0
0
0
0
0
0
0
0
1
0
0
1
0
0
0
0
0
0
0
0
0
0
0
0
0
1
0
0
0
0
0
0
0
0
0
0
0
0
0
0
0
0
1
0
0
0
0
0
0
0
0
0
0
1
0
0
0
0
0
0
0
0
0
0
0
0
0
0
0
0
0
0
0
0
0
0
0
0
0
0
0
0
0
0
0
0
0
0
0
0
0
0
0
0
0
0
0
0
0
0
0
0
0
0
0
0
0
0
0
0
0
0
0
0
0
1
0
0
0
0
0
0
0
0
0
0
0
0
0
0
0
0
0
0
0
0
0
0
0
0
0
0
0
1
0
1
1
0
0
0
0
0
0
0
0
0
0
0
0
0
1
0
1
0
0
0
0
1
0
0
0
0
0
0
0
0
1
1
0
0
0
0
0
1
0
0
0
0
0
0
0
0
1
0
0
0
0
0
0
0
0
0
0
0
0
0
0
0
0
0
0
0
0
0
0
0
0
0
0
0
0
0
0
0
0
1
0
0
0
0
0
0
0
0
0
0
0
0
0
0
0
0
0
0
0
0
0
0
0
0
0
0
0
0
0
0
0
0
0
0
0
0
0
0
0
0
0
0
0
0
0
0
0
1
0
0
0
0
0
0
0
0
0
0
0
0
0
0
0
0
0
0
0
0
0
0
0
0
0
0
0
0
0
0
0
0
0
0
0
0
0
0
0
0
0
0
0
0
0
0
0
0
0
0
1
0
0
0
0
0
0
0
0
0
0
0
0
0
0
0
0
0
0
0
0
0
0
0
0
0
0
0
0
0
0
0
0
0
0
0
0
0
0
0
0
0
0
0
0
0
0
0
0
0
0
0
0
0
0
0
0
0
1
0
0
0
0
0
0
0
0
0
0
0
0
0
0
0
0
0
0
0
0
0
0
0
0
0
0
0
0
0
0
0
0
0
0
0
0
0
0
0
0
0
0
0
0
0
0
0
0
0
0
0
0
0
0
0
0
0
0
0
0
0
0
0
0
0
0
0
0
0
0
0
0
0
0
0
0
0
0
0
0
0
0
0
0
0
0
0
0
0
0
0
0
0
0
0
0
0
0
0
0
0
0
0
0
0
0
0
0
0
0
0
0
0
0
0
0
0
0
0
0
0
0
0
0
0
0
0
0
0
0
0
0
1
0
0
0
0
0
0
0
0
0
0
0
0
0
0
0
0
0
0
0
1
0
0
0
0
0
0
0
0
0
0
0
0
0
0
0
0
0
0
0
0
0
0
0
0
0
0
0
0
0
0
0
0
0
0
0
0
0
0
0
0
0
0
0
0
0
0
0
0
0
0
0
0
0
1
0
0
0
0
0
0
0
0
0
0
0
0
0
0
0
0
0
0
0
0
0
0
0
1
0
0
0
0
0
0
0
0
0
0
0
0
0
0
0
0
0
0
0
1
0
0
0
1
0
0
0
0
0
0
0
0
0
0
0
0
0
0
0
0
0
0
0
0
0
0
0
0
0
1
0
0
0
0
0
0
0
1
0
0
0
0
0
0
0
0
0
0
0
0
0
0
0
0
0
0
0
0
0
0
0
0
0
0
1
0
0
0
0
0
0
0
1
0
0
0
0
0
0
1
0
0
0
0
0
0
0
0
0
0
0
0
0
0
0
0
0
0
0
0
0
0
0
0
0
0
0
0
0
0
0
0
0
0
0
0
0
0
1
0
0
0
0
0
1
0
0
0
0
0
0
0
1
0
0
0
0
0
0
0
0
0
0
0
0
0
1
0
0
0
0
0
0
0
0
0
0
0
0
0
0
0
0
0
0
0
0
0
0
0
0
0
0
0
0
0
0
0
0
0
0
0
0
0
0
0
0
0
0
0
0
0
0
0
0
0
0
0
0
0
1
0
0
0
0
0
0
0
0
0
0
0
0
0
0
0
0
0
0
0
1
0
0
0
0
0
0
0
0
0
1
0
0
0
0
0
0
0
0
0
0
0
0
0
0
0
0
0
0
0
0
0
0
0
0
0
0
0
0
0
1
0
1
0
0
0
0
0
0
0
0
0
0
0
0
0
0
0
0
0
0
0
0
0
0
0
0
0
0
0
1
0
0
0
1
0
0
0
0
0
0
0
0
0
0
0
0
0
0
0
0
0
0
0
0
0
0
0
0
0
0
0
0
1
0
0
0
0
0
0
0
0
0
0
0
0
0
0
0
0
0
0
0
0
0
0
0
0
0
1
0
0
0
0
0
0
0
0
0
0
0
0
0
0
0
0
0
0
0
0
0
0
0
1
0
0
0
0
0
0
1
0
0
0
0
0
0
0
0
0
0
0
1
0
0
0
0
0
0
0
0
0
0
0
0
0
0
0
0
0
0
0
0
1
0
0
0
0
0
0
0
0
0
0
0
1
0
0
0
0
0
0
0
0
0
0
0
0
0
0
0
0
0
0
0
0
0
1
0
0
0
0
0
0
0
0
0
1
1
0
1
0
1
0
0
0
0
0
0
0
0
0
0
0
1
0
0
0
0
0
1
1
0
0
0
0
0
0
1
0
0
0
0
0
1
1
1
0
0
0
0
0
0
0
0
0
0
0
0
1
1
0
0
1
0
0
0
0
0
1
0
0
0
1
0
1
0
0
0
0
0
0
0
1
0
0
0
0
0
0
0
1
0
0
1
0
0
0
0
0
0
0
0
0
0
0
0
0
0
0
1
0
0
0
0
0
0
0
0
0
0
0
0
0
0
0
0
0
0
0
0
0
0
0
0
0
0
0
0
0
0
0
0
0
0
0
0
1
0
0
0
0
0
0
1
0
0
0
1
0
0
0
0
0
0
0
0
0
0
0
1
0
0
0
0
0
0
0
0
0
0
0
0
0
0
0
0
0
0
0
0
0
0
0
0
0
0
0
0
0
0
0
0
0
0
0
0
0
0
0
0
1
1
0
0
0
0
0
0
0
0
0
0
0
0
0
1
0
0
0
0
0
0
0
0
0
0
0
0
0
0
0
0
0
0
0
0
0
0
0
0
0
0
0
0
0
0
0
0
0
0
0
0
0
0
0
0
0
0
0
0
0
0
0
0
0
0
0
0
0
0
0
0
0
0
0
0
0
0
0
0
0
0
0
0
0
0
0
0
1
1
0
0
0
0
0
0
0
0
1
0
0
0
0
0
0
0
0
0
0
0
0
0
0
0
0
0
0
0
0
0
0
0
1
0
0
0
0
0
0
0
0
0
0
0
0
0
0
0
0
1
0
0
0
0
0
0
0
0
0
0
0
0
0
0
0
0
0
0
0
0
0
0
0
0
0
0
0
0
0
0
0
0
0
0
0
0
0
0
0
0
0
0
0
0
0
0
0
0
0
0
0
0
0
0
0
0
0
0
0
0
0
0
0
0
0
0
0
0
0
0
0
0
0
0
0
0
0
0
0
0
0
0
0
0
0
0
0
0
0
0
1
1
0
0
0
0
0
1
0
0
0
0
0
0
0
0
0
0
0
0
1
0
0
0
0
0
0
0
0
0
0
0
0
0
0
0
0
0
0
0
0
0
0
0
0
0
0
0
0
0
0
0
0
0
0
0
0
0
0
0
0
0
0
0
0
0
0
0
0
0
0
0
0
0
1
0
1
0
0
0
0
0
0
0
0
0
0
0
0
0
0
0
0
0
0
1
0
0
0
0
0
0
0
0
0
0
0
0
0
0
0
0
0
0
0
0
0
0
0
0
0
0
0
0
0
0
0
0
0
0
0
0
0
0
0
0
0
0
0
0
0
0
0
0
0
0
0
0
0
0
0
0
0
0
0
0
0
0
0
0
0
0
0
0
0
0
1
0
0
0
0
0
0
0
0
0
0
1
0
0
0
0
0
0
0
0
0
0
0
0
0
0
0
0
0
0
0
0
0
0
0
0
0
0
0
0
0
0
0
0
0
0
0
0
0
1
0
0
0
0
0
0
0
0
0
0
0
0
0
0
0
0
0
0
0
0
0
0
0
0
0
0
0
0
0
0
0
0
0
0
0
0
0
0
0
0
0
0
0
0
0
0
0
0
0
0
0
0
0
0
0
0
0
0
0
0
0
0
0
0
0
0
0
0
0
0
0
0
0
0
0
0
0
0
0
0
0
1
0
0
0
0
0
0
0
0
0
0
0
0
0
0
0
0
0
0
0
0
0
0
0
0
0
0
0
0
0
0
0
0
0
0
0
0
0
0
0
0
0
0
0
0
0
0
0
0
0
0
0
0
0
0
0
0
0
0
0
0
0
0
0
0
0
0
0
0
0
0
0
0
0
0
0
0
0
0
0
0
0
0
0
0
0
0
0
0
0
0
0
0
0
0
0
0
0
0
0
0
0
0
0
0
0
0
0
0
0
0
0
0
0
0
0
0
0
0
0
0
0
0
0
1
0
0
0
0
0
0
0
0
0
0
0
0
0
0
0
0
0
0
0
0
0
0
0
0
0
0
0
0
0
0
0
0
0
0
0
0
0
0
0
0
0
0
0
0
0
0
0
0
0
0
0
0
0
0
0
0
0
0
0
0
0
0
0
0
0
0
0
0
0
0
0
0
0
0
0
0
0
0
0
0
0
1
0
0
0
0
0
0
0
1
0
0
0
0
0
0
0
0
0
0
0
0
0
0
0
0
0
0
0
0
0
0
0
0
0
0
0
0
0
0
0
0
0
0
0
0
0
1
0
0
0
0
0
0
0
0
0
0
0
0
0
0
0
0
0
0
0
0
0
1
0
0
0
0
0
0
0
0
0
0
0
0
1
1
0
0
0
0
0
0
0
0
0
0
0
0
0
0
0
1
1
0
1
0
0
0
0
0
0
0
0
0
1
0
0
0
0
0
0
1
0
0
0
0
0
0
0
0
0
0
1
0
0
0
0
1
0
1
0
0
0
0
0
0
0
1
0
0
0
1
0
0
0
1
0
1
1
0
0
1
1
0
0
0
1
0
0
0
1
0
0
0
0
0
0
0
0
0
1
0
0
0
0
0
0
1
0
0
0
0
0
0
0
0
0
0
0
0
0
0
0
0
0
0
0
0
0
0
0
0
0
0
0
1
0
0
1
0
0
0
0
0
0
0
0
0
0
0
0
0
0
0
0
0
0
1
0
0
1
0
0
0
0
0
0
0
0
0
0
0
1
0
0
1
0
0
0
0
0
0
0
0
0
0
0
1
1
0
0
0
0
0
0
0
0
0
0
0
0
1
0
0
0
0
0
0
0
0
0
0
0
0
0
0
0
0
0
1
0
0
0
0
0
0
0
0
0
0
0
0
0
0
0
0
0
1
0
0
0
0
0
0
0
0
0
0
0
0
0
0
0
0
0
0
0
0
0
0
0
0
0
0
0
0
0
0
0
0
0
0
0
0
0
0
0
0
1
0
0
0
0
0
0
0
0
0
0
0
0
0
0
0
0
0
0
0
0
0
0
0
0
0
0
0
0
0
0
0
0
0
0
0
0
0
0
0
0
0
0
0
0
0
1
0
0
0
0
0
0
0
0
0
0
0
0
0
0
0
0
0
0
0
0
0
0
0
0
0
0
0
0
0
0
0
0
0
0
0
0
0
0
0
0
0
0
0
0
0
0
0
1
0
0
0
0
0
0
0
0
0
0
1
0
0
0
0
0
0
0
0
0
0
0
0
0
0
0
1
0
0
1
0
0
0
0
0
0
0
0
0
0
0
0
0
0
0
0
0
0
0
0
0
0
0
1
0
0
0
0
0
0
0
0
0
0
0
0
0
0
0
0
0
0
0
0
0
0
0
0
0
0
0
0
0
0
0
0
0
0
0
1
0
0
0
0
0
0
0
0
0
0
0
0
0
0
0
0
0
0
0
0
0
0
0
0
0
0
0
0
0
0
0
0
0
0
0
0
0
0
0
0
0
0
0
0
0
0
0
0
0
0
0
0
0
0
0
0
0
0
0
0
0
0
0
0
0
0
0
0
0
0
0
0
0
0
0
0
1
0
0
0
0
0
0
0
0
0
0
0
0
0
0
0
0
0
0
0
0
0
0
0
0
0
0
0
0
0
0
0
0
0
0
0
0
0
0
0
1
0
0
0
0
0
0
0
0
0
0
0
0
1
1
0
0
0
0
0
0
0
0
0
0
0
0
0
0
0
0
0
0
0
0
0
0
0
0
0
0
0
0
0
0
0
0
0
0
0
0
0
0
0
0
0
0
0
0
0
0
0
0
0
0
0
0
0
0
0
0
0
0
0
0
0
0
0
0
0
0
0
0
0
0
0
0
0
0
0
0
0
0
0
0
0
0
0
0
0
0
0
0
0
0
0
0
0
0
0
0
0
0
0
0
0
1
0
1
0
0
0
0
0
0
0
1
1
1
1
0
0
0
0
0
0
0
0
0
0
0
0
0
0
0
0
0
0
0
0
0
0
0
0
0
0
0
0
1
1
0
0
0
0
0
0
0
0
0
0
0
0
0
0
0
0
0
0
1
0
0
0
0
0
0
0
1
1
0
1
1
0
0
1
0
0
0
0
0
0
0
1
0
1
0
0
0
0
0
0
0
0
0
0
0
0
0
0
0
0
0
0
0
0
0
0
0
0
0
0
0
1
1
0
0
0
1
1
0
0
0
0
1
0
0
1
0
1
0
0
0
0
0
1
0
0
0
1
0
0
0
0
0
0
0
0
0
0
0
0
0
0
0
0
0
0
0
0
0
0
0
0
0
0
0
1
0
0
0
0
0
0
1
0
0
0
0
0
0
0
0
0
0
0
0
0
0
0
0
0
0
0
0
0
0
0
0
0
0
0
0
0
1
0
1
0
0
0
0
0
0
0
1
0
0
0
0
0
0
0
0
0
0
0
1
0
0
0
0
0
0
0
0
0
1
0
0
0
0
0
0
0
1
0
0
0
0
0
0
0
1
0
0
0
0
0
0
0
0
0
0
0
0
0
0
0
0
0
0
0
1
0
1
0
0
0
0
0
1
0
0
0
0
0
0
0
0
0
0
0
0
0
0
0
0
0
0
0
0
0
0
0
0
0
1
0
1
0
0
0
0
0
0
0
0
0
1
0
0
0
0
0
1
0
0
0
0
0
0
0
0
0
0
0
0
0
0
0
1
0
0
0
0
0
0
0
0
1
0
0
0
0
0
0
0
0
0
0
0
0
0
0
0
0
0
0
0
0
0
0
0
0
0
0
0
0
0
0
1
0
0
0
0
0
0
0
0
0
0
0
0
0
0
0
0
1
0
0
0
0
0
0
0
0
1
0
0
0
0
0
0
0
0
0
1
0
0
0
0
0
1
0
0
0
0
0
0
0
0
0
0
0
0
0
0
0
0
0
0
0
1
0
0
0
0
0
0
1
0
0
0
0
0
0
0
0
1
0
0
0
0
0
0
0
0
0
0
0
0
0
0
1
0
0
1
0
0
0
1
0
0
0
0
0
0
0
0
0
0
0
0
0
0
0
0
1
0
0
0
0
0
0
0
0
0
0
1
0
1
0
0
0
0
0
0
1
0
0
0
0
0
0
0
0
0
0
0
0
0
0
0
0
0
0
0
0
0
0
0
0
0
0
0
1
1
0
0
0
0
0
0
1
0
0
0
0
0
0
0
0
0
0
0
0
0
1
0
0
0
0
0
0
0
1
0
0
0
0
0
0
0
0
0
0
0
0
0
0
0
0
0
0
0
0
0
0
0
0
0
0
0
1
0
0
0
0
0
0
0
0
0
0
1
0
0
1
0
0
0
0
0
0
0
0
0
0
0
0
0
0
0
0
0
0
0
0
0
0
0
0
0
0
0
0
0
1
0
0
0
0
0
0
0
1
0
0
0
0
0
0
0
1
0
0
0
0
1
0
0
0
0
0
0
0
0
0
0
0
1
0
1
0
0
0
1
0
				</DataArray>
				<DataArray type="Float64" Name="h" NumberOfComponents="1" Format="ascii">
0.9895255189
0.9895695227
0.9794842776
0.9914392915
0.9778747439
0.9823897887
0.9853378268
0.9944910046
0.9894844381
1.0013322573
0.9946811271
0.9842129650
0.9893558062
0.9992177856
0.9933373587
0.9864671434
0.9888010426
0.9982123819
0.9849741709
0.9971538708
0.9725504307
0.9818752575
0.9759558595
0.9728698957
0.9925346916
0.9913575543
0.9641877029
0.9334293391
0.9738437119
1.0013222001
1.0002159994
0.9794273335
0.9764792798
0.9788010215
0.9440415031
0.9677085616
0.9576556584
0.9641784038
0.9260436529
0.9691254534
0.9748142236
0.9406558266
0.9706071853
0.9641049076
0.9664561155
0.9467954826
0.9698864539
0.9333787952
0.8451790697
0.8409869139
0.9656183848
0.9603639331
0.9674100670
0.8860546235
0.9511392918
0.9564349987
0.9506885841
0.9103606202
0.9004836912
0.9002784959
0.8843636443
0.8918907509
0.8508805276
0.9611124399
0.9539660409
0.9065099819
0.8361612066
0.8480921135
0.8910657090
0.8997555059
0.8980747766
0.9494453602
0.9496489806
0.8764015610
0.8895659127
0.8842261696
0.9097532903
0.8802113771
0.9211142426
0.9043638465
0.8717077467
0.8938875541
0.8440799061
0.8447356456
0.9094435599
0.8787047213
0.8670383636
0.8403427421
0.8708144840
0.8424088260
0.8628928652
0.8905454947
0.8748565323
0.8378270886
0.8712684190
0.8841394620
0.8416431687
0.9145505460
0.9113138824
0.8671142152
0.8444380886
0.8721102941
0.8642202593
0.9201214171
1.0050940692
0.8312968785
0.8490484933
0.8460953410
0.8813313046
0.8755363550
0.8359354033
0.8413719023
0.8652733337
0.8577336294
0.8601897773
0.8539494730
0.8680502445
1.0063565562
0.8526582080
0.8588311274
1.0064919732
0.8468481636
0.8568575165
1.0160121944
0.8592959022
0.8479874571
0.8637614617
1.0160934679
0.8565202043
0.8517019289
0.8571783101
0.8535595453
0.8610883282
0.8555737411
1.0074150240
0.8575272492
0.9927688792
0.8527990958
0.8650677150
0.9749939448
1.0149978050
1.0127771243
0.8547395314
0.9633603701
0.8621368016
0.8611739198
0.9831101479
0.8461231589
1.0126145835
0.8443484702
0.9954129085
0.8524414966
0.8497130129
0.8459501630
0.8677056598
0.8501296870
0.8482944254
1.0084264558
0.8449258569
1.0203429829
0.9679094995
0.8476010274
0.9860680915
1.0152127550
1.0119200447
0.8474516800
0.9491272142
0.9797780970
1.0207275492
0.8470128835
0.8492501999
1.0230563710
0.8464320650
1.0071676448
0.9381898302
0.8444001396
0.9545634846
0.8421949201
0.8446828441
1.0138691301
0.8503537169
0.9184323803
1.0190470043
0.8410717125
1.0238993548
1.0264897145
0.9316548378
0.8442376507
1.0219173694
1.0274419717
0.8963831306
0.8445928873
1.0232536260
0.9109395955
0.8446695329
0.8441275963
1.0070503624
0.8727296497
0.8876379403
0.8408972564
1.0279962370
0.8293701190
1.0269155923
0.8434956553
0.8468516753
1.0112844658
0.9735040869
0.9909866387
0.8630904199
0.9487119786
0.8908049162
1.0243612229
1.0091858202
1.0127600892
0.9823553741
0.8673352300
0.9622469513
1.0055249292
0.9126561893
1.0181048625
0.8367953436
0.8326584643
0.9322025093
0.8163082201
0.8157270005
0.8398090870
0.8410817616
0.8075433050
0.8224517422
0.8383321203
0.8420511373
0.8247446112
0.8096192111
0.8397740663
0.8404680168
0.8097664660
0.8763982472
0.9611394766
1.0193135794
0.9329505267
0.8714980556
0.9801519822
1.0027685634
0.9382335005
0.9847108596
0.9665389317
1.0071304801
0.8990191064
0.9716076955
0.9959486776
0.9483177031
0.8942340475
1.0009978090
0.8526555257
0.8487058435
1.0043102672
0.9536251670
0.9766786924
1.0127631932
0.8182813970
0.9147534528
0.8006411450
0.7933556050
0.8026536822
0.8059382342
0.8395630247
0.8367289087
0.8196277882
0.8379735592
0.8218502915
0.8351903492
0.9198458489
0.8345569598
0.8035076951
0.8094551644
0.8081328416
0.7955388038
0.7958246015
0.8120653084
0.8123029369
0.8387542573
0.8366680285
0.8376610290
0.8374299592
0.8300003590
0.8273192025
0.8025761476
0.9476625386
0.9977961178
0.9928348220
0.9526703218
0.8584929484
0.9688356454
0.9739110323
0.9171106149
0.8557937385
0.9213345832
0.9593187449
0.9848769341
1.0043133592
0.9939777522
0.9644826965
0.8807141240
0.8348657181
0.8361602511
0.9336623730
0.8772586162
0.9383477699
0.9906808577
0.7914190944
0.7899271858
0.7826579108
0.8342220185
0.8068406468
0.8273315841
0.8046193859
0.8982357008
0.8246053209
0.8327850651
0.9018977946
0.7900367461
0.7928758126
0.8098872786
0.8358193010
0.7856818597
0.7892025972
0.7840616480
0.8340739811
0.7954892104
0.8150839635
0.8314050884
0.8330106850
0.8326459036
0.7987509058
0.7992665743
0.7994719917
0.8198295937
0.9382393120
0.8160180776
0.9022448004
0.8441884622
0.9052939882
0.9864082797
0.8442446533
0.9565382312
0.9339440303
0.9617159469
0.9805203510
0.8040615551
0.7853206498
0.8257388554
0.7782674074
0.9510913957
0.9782660452
0.8082183778
0.9192915540
0.7855880194
0.8638386877
0.9229208978
0.7854232743
0.7892936192
0.8069438704
0.9939818035
0.8648621362
0.8250197800
0.9462811420
0.7998889260
0.7923249918
0.7772973466
0.9823450907
0.7817393365
0.7949288203
0.9729575466
0.8280667841
0.7919354401
0.7805731273
0.8300172247
0.9315721105
0.8180573634
0.7861834638
0.8000212161
0.8132472274
0.8295750131
0.8834764091
0.7985109934
0.8858165770
0.7846847840
0.7797894097
0.7768016606
0.8747760706
0.8277543061
0.7945990550
0.7837615683
0.8194848453
0.8271632159
0.7884169899
0.9202096815
0.9039793143
0.8951701862
0.8401702975
0.7795459567
0.8221572219
0.8517985582
0.8024592498
0.8291987027
0.8295581672
0.8090106072
0.7917489444
0.7802921581
0.8633909536
0.7764461378
0.7917667193
0.7848500840
0.7899192556
0.9240773184
0.8091410902
0.8029078500
0.8909821265
0.7827569487
0.7819909916
0.8029632781
0.8096142557
0.9487075478
0.7969054271
0.8066036655
0.7742241960
0.8170708261
0.9738189875
0.7894590999
0.8350687413
0.7803354895
0.8071383627
0.7824733810
0.8004819954
0.7828327638
0.7764872401
0.8023443467
0.7933758795
0.8161008350
0.8059434831
0.7947533093
0.7955894858
0.9374438257
0.7954972274
0.8006561664
0.9081858815
0.7768458424
0.7969129718
0.7780238614
0.7935953108
0.7889906555
0.8178203821
0.9823507695
0.7889829460
0.8533924864
0.8096189851
0.8047337683
0.8006845071
0.7893378822
0.8056187175
0.9660888706
0.8184812274
0.9109525399
0.8240385361
0.8723745611
0.7827071425
0.7740446341
0.7813814581
0.8322663935
0.9354815573
0.8233483084
0.8796755171
0.8021481067
0.8457868859
0.7970802631
0.7744187134
0.8096610668
0.8657028700
0.9610622002
0.9252857015
0.9189692935
0.8157857680
0.9242369434
0.8239192366
0.8165825403
0.8102884396
0.8120730061
0.9119039425
0.7765755562
0.8973020356
0.8020812716
0.7884198506
0.8128780017
0.9535344105
0.9202240382
0.8854238064
0.8960013395
0.8173250311
0.7915687352
0.9099302298
0.8098486645
0.8073694401
0.8761963489
0.8951803032
0.8401754866
0.8626885134
0.7767017473
0.9681986917
0.8044689702
0.8037230424
0.9118900854
0.8299552347
0.8023614656
0.8796858569
0.8082314501
0.9610686272
0.7964083559
0.7994628453
0.9552958359
0.8795354473
0.8299677581
0.7915872451
0.7989976807
0.8102692965
0.9087449521
0.7998808200
0.9044300742
0.7960186304
0.8141809388
0.8325250299
0.7906524766
0.9109600471
0.7885356295
0.9316115951
0.9354854762
0.8419887845
0.9535386417
0.8960108488
0.9682060551
0.8141818725
0.8157969351
0.8522018867
0.8866975685
0.9625820973
0.8714184581
0.8947831295
0.9109789953
0.8457988208
0.8621402489
0.8927447030
0.8063966574
0.8795019651
0.9210155447
0.8227441524
0.9482311468
0.8149176083
0.8190719050
0.8978763509
0.7969838065
0.8035434142
0.8476862169
0.9025913830
0.8006961441
0.9242420277
0.8319749729
0.7934142456
0.8626993621
0.7740421536
0.8050608400
0.8178517641
0.8636192847
0.8010888427
0.8054181033
0.8013217619
0.7819872469
0.9431390464
0.7976211773
0.8047636190
0.8023630685
0.8443699888
0.8860811720
0.7780500129
0.8098506501
0.8987159782
0.8036896219
0.9201432602
0.8161148142
0.7848917910
0.7768390145
0.8909485621
0.8171020442
0.8448434985
0.8858268625
0.8326533675
0.8881941447
0.7889840827
0.8311863798
0.9500698918
0.8139437653
0.8545968493
0.8223644657
0.8584027677
0.8106619723
0.8987518448
0.7742330895
0.8838213198
0.8621279700
0.8138655817
0.8029302368
0.8904959948
0.8705238962
0.9288034996
0.8122801712
0.8926675701
0.8047629672
0.9101382813
0.8070026279
0.9316181939
0.8636284343
0.8325354452
0.9087517992
0.8048751125
0.8089565488
0.9363135693
0.9553043368
0.8724726116
0.8906760594
0.8268603592
0.9482386651
0.8864765622
0.8621303262
0.8908322294
0.8823909870
0.8190811280
0.8795438259
0.8476963292
0.9210212227
0.8204300241
0.8283311718
0.8138861017
0.8046224480
0.9625910131
0.8702906338
0.8528218944
0.8400847232
0.8119967082
0.8100643830
0.8227447429
0.8777978515
0.8150734637
0.8895584034
0.8792449729
0.9364799756
0.9127803719
0.8880851871
0.8531875710
0.8279614083
0.8947904480
0.8161173142
0.8915023393
0.9427373645
0.9216712951
0.8102744607
0.8242774244
0.8287752274
0.8118113667
0.8890057046
0.8662702496
0.9295034028
0.9027288358
0.8230623848
0.8255554949
0.8419916896
0.8770197982
0.8526136060
0.8891818261
0.8227366752
0.8889109688
0.8865436222
0.8378880119
0.8370982653
0.8646149922
0.8729435346
0.8280546303
0.8794746798
0.8828847069
0.8893355208
0.8335311615
0.8365548354
0.8366146842
0.8853213063
0.8897599194
0.8899734643
0.8908667936
0.8896937963
0.8322848719
0.8382406018
0.8172294349
0.8252923926
0.8885743339
0.8419814681
0.8427735974
0.8908879558
0.8283298276
0.8235556406
0.8905066866
0.8449235560
0.8795101165
0.8347311887
0.8966416019
0.8922782426
0.8456957211
0.8926780633
0.8412437536
0.8326156336
0.9026034621
0.8272948381
0.9004041522
0.8971360408
0.8246281273
0.8202760603
0.9167855348
0.9841163869
0.9853090568
0.9853573438
0.9841599306
0.9881074099
0.9842054288
0.9946626634
0.9932082674
0.9798635852
0.9823698526
0.9779019368
0.9798972510
0.9895100727
0.9933143865
0.9853119442
0.9998909392
0.9932348735
0.9881235779
0.9942132644
0.9981989981
0.9914554306
0.9794972003
0.9849330025
1.0013098234
0.9915630547
0.9838136579
0.9945147941
0.9913423658
0.9925245015
1.0013489532
0.9871471707
0.9893872893
0.9752814299
0.9812887224
0.9812062484
0.9999065522
1.0002063657
0.9942404241
0.9788066221
0.9764140633
0.9793503239
0.9698747019
0.9691127641
0.9288162565
0.9888019598
0.9865043648
0.9705205130
0.9258888348
0.9838161509
0.9915862563
0.9747592847
0.9992306979
0.9971588567
0.9752890072
0.9760265262
0.9289532106
0.9819304484
0.9633642413
0.9871890441
0.9725491375
0.9812733636
0.9765757664
0.9232298786
0.9333810001
0.9813398577
0.9664278127
0.9656249880
0.9697865404
0.9335589872
0.9728886686
0.9739011403
0.9505869436
0.9375692065
0.9642768440
0.9520737023
0.9968368818
0.9289649181
0.9410931488
0.9397739918
0.9699385749
0.9673126053
0.9289441007
0.8418308142
0.8510704436
0.9766501203
0.9633703614
0.9568340332
0.9233007685
0.9677465984
0.9538413685
0.9642806885
0.9357318690
0.9440430060
0.8509199530
0.8481247935
0.9265542396
0.9576519075
0.9610683160
0.9410957785
0.9183013656
0.9096537460
0.9641995033
0.8764521056
0.9012832434
0.9494342544
0.9495382560
0.9017018594
0.9307228645
0.9472543350
0.9520789864
0.8832415298
0.9397697337
0.9406881356
0.9097629564
0.8980906360
0.8769379841
0.8895953608
0.9377090006
0.9565160122
0.8910712027
0.9492590658
0.9968548725
0.8997570247
0.9568497528
0.9357294905
0.9012761668
0.9265913985
0.8493995980
0.9261939756
0.8363093738
0.8451270103
0.9604251989
0.8510379840
0.9469154129
0.8938466513
0.8447682686
0.9137230350
0.8417882711
0.8409415682
0.8843576312
0.8918890683
0.9566237242
0.8766718265
0.8768816860
0.9004676000
0.9134817653
0.9012553197
0.8935563756
0.9383231210
0.9182924239
0.9492538065
0.9284590347
0.9511606663
0.8920364736
0.9016957549
0.8832412084
0.9565222920
0.8967121542
0.8882098934
0.9308636518
0.8860219633
0.9096346887
0.9002484636
0.8903911132
0.9103546644
0.9473775054
0.8748706446
0.8493503234
0.9201242121
0.9111636715
0.9137143113
0.9167251113
0.9261780065
0.8716652129
0.8314180407
0.8704643764
0.8481528988
0.9066006590
0.8445043044
0.8361292761
0.9308697746
0.9143813156
0.8776119769
0.8840088910
0.9142115942
0.8362892573
0.8671312724
0.8312944414
0.9014126371
0.8450796298
0.8967247646
0.8813511451
0.8414333248
0.8766670517
0.8881804429
0.8652928645
0.9284435947
0.8843667110
0.8309802588
0.9134614390
0.8801970670
0.9384352190
0.8614859996
0.8936900925
0.8359740898
0.8754852685
0.8920256649
0.8704511926
0.8450278257
0.8845466067
0.8776062461
0.8788566488
0.8468497906
0.8708115227
0.9308659301
1.0028523969
0.9141941385
0.8481133486
0.9096063972
0.9045366859
0.8670261711
0.8440145773
0.8716966656
0.8680686890
0.9211068912
0.8314212590
1.0064834867
0.8403406318
0.9168748784
0.8614651651
0.8534737768
0.8292630786
0.9982220674
0.8480430699
0.8659623877
0.8573029111
0.8707781875
0.8713586152
0.8377807184
0.8515087021
0.8423390969
0.8628670288
0.8526266776
0.9103565690
0.8593250368
0.8638097004
0.8309786577
0.8517320585
0.8642244680
0.8486010019
0.8235770873
0.8845258342
1.0028549253
0.8707635521
0.8521159195
1.0074080738
0.8575574566
0.8611410125
1.0051005957
0.8416761412
0.8619996235
0.8231102621
1.0127741213
0.8583532361
0.9982190074
0.8514733744
0.8576981604
0.8460364523
0.9938922059
0.9103537822
0.8572772817
0.8601508575
1.0126102057
0.8292532125
0.8547665306
1.0178117216
0.8539183371
0.8659380222
0.8612004223
0.8525857917
0.8491636862
1.0117148644
0.8687739937
0.8174772814
0.8516170136
0.8485612136
0.8520782287
0.9996966263
0.8540885329
0.8483025618
0.8645288933
0.8587795971
0.8236205707
0.8524724859
1.0063645991
0.8610500902
0.8526242517
1.0059498146
0.9954305754
0.8497410870
0.8681639888
0.9938922298
1.0178131963
0.9797512485
1.0119179370
0.8583232803
0.8462971591
1.0117181538
1.0165439073
0.8432812133
0.8225295167
0.8231346835
1.0160138388
0.8564944253
0.9678769737
1.0110978858
0.8569769915
0.8571523836
1.0068604599
0.9860755356
0.8586874587
0.8476235001
1.0160954166
0.8449470680
0.8645085926
0.9927601584
0.8555423425
0.8492031670
0.8188993641
0.8482449739
0.8527151072
0.8527697032
0.8464574887
1.0043828211
1.0028480659
0.8650481457
1.0059557570
0.8175476744
0.9996833381
0.8515865124
0.8688857161
0.8610276039
0.8470376713
0.8598102566
0.8540599496
0.8492792237
1.0071721911
0.8443296457
1.0190478955
0.8271957908
1.0111035642
1.0165449285
0.8478252128
0.8472751820
0.8455258178
0.9634066057
0.8461007765
0.9831272329
1.0138715781
0.8432660862
1.0068658411
0.8225719643
1.0157817606
1.0149979947
0.8503832259
0.8586610573
0.9545164257
0.8613642609
0.9750370014
0.8462725676
1.0187530758
1.0219171262
0.8500999074
0.8482675823
1.0028374538
0.8223517524
0.8491773684
1.0105921209
1.0043870881
0.8189527096
1.0238994653
0.8526835579
0.8459226839
1.0084241648
0.8597829300
0.9315536483
0.8335683009
0.8446920669
0.9491971850
1.0187530259
0.8477850110
0.8441573166
1.0157794573
0.8455032140
0.8613398283
0.8457935552
1.0230124889
0.8472491495
0.8272618714
1.0190990837
0.8446154359
0.8566106275
1.0152110718
0.8474186405
0.9108001549
0.8428918283
1.0203422363
0.8292539090
0.8434805645
1.0230561005
1.0269165316
0.9382589007
0.8435145252
0.8224451989
1.0207284173
1.0279978798
1.0105946637
0.8875167177
0.8430983900
0.8446608025
1.0103206549
1.0230119769
1.0190996559
1.0243615586
0.8428790797
0.8457703459
1.0131112772
0.8438674874
0.9185453413
0.8565807834
0.8443776830
0.8336940921
1.0240896246
1.0258217026
0.8421736805
1.0091894121
0.8629925857
0.8965065012
0.8420649319
0.8434592440
1.0274411335
0.8430767226
0.8426294825
0.8420187568
0.8411786063
1.0264887277
0.8442161016
0.8367182133
1.0071301787
0.9665198051
1.0026356486
0.9847367567
0.8728218168
1.0258228153
0.8422474078
1.0204244654
0.9381974868
0.9985401597
1.0103146293
0.8763200421
1.0232542028
1.0217764696
0.8438225719
1.0070441691
1.0160521179
0.9766795538
0.9935732270
0.8526018730
0.9536063770
1.0010024936
0.8989272178
1.0240916389
1.0193103846
1.0131096136
0.8405120587
0.8296888331
0.8469217987
0.8426112317
0.8273144016
0.9197861767
0.8419983372
0.8093367492
0.8122316042
0.8376759435
0.8388200588
0.8414636370
0.8024660379
0.8195873455
0.8346073363
0.8408770516
0.8182079146
0.8058361578
0.8379852672
0.8399728434
0.8396063079
0.8033900396
0.8909103619
0.9526617323
0.9885785378
1.0181059038
0.9213099617
0.8584511150
0.9985305350
0.8423065582
1.0026262599
1.0146929466
0.8269131493
0.9739327639
0.9977956725
1.0204245296
0.9487458491
0.9909671354
0.9735256694
1.0112856392
0.9127469582
0.9644845392
0.9906857037
1.0217798430
0.9383312652
0.8806591304
1.0055223454
0.8674170370
0.8361327397
0.9822238177
1.0085164518
0.9622677011
0.9935596590
0.9823421928
1.0160557124
0.8247580561
0.9018533838
0.8155931600
0.7994415582
0.7891179785
0.7953521159
0.8097453211
0.8399210007
0.8404338326
0.8341026238
0.8225158804
0.8397563717
0.8372912992
0.8150139558
0.8314502062
0.9322537416
0.8405013459
0.8382683759
0.8098617334
0.8163729298
0.8068282286
0.7928237140
0.7898171523
0.8044884914
0.8158376022
0.8410192528
0.8414112318
0.8342291950
0.8297274622
0.8398072121
0.8358336231
0.8246086065
0.8347649618
0.8326228904
0.8076497267
0.9382319280
0.9770991759
1.0027696374
1.0146930555
0.9864066768
0.9611504406
0.8715640207
0.8157689970
0.9617290537
0.8269421195
0.9801294941
0.9052740094
0.8442216316
0.9329724170
0.9885677002
0.9510958145
0.9782686872
1.0085195731
0.9991455767
0.9715982921
0.8943007282
0.8250046019
0.9706370600
0.8487524783
0.9822077319
0.9229048151
0.8648342290
0.9483307629
0.9959455291
0.7917394454
0.7959537948
0.7802583142
0.8366633554
0.8081540971
0.8221677916
0.8121507199
0.8857904387
0.8299658504
0.8347266136
0.8315617142
0.8295549798
0.8078814276
0.9147919990
0.7836676997
0.7956322030
0.8023574491
0.8373985937
0.7846666042
0.7934727446
0.7797362567
0.8367119943
0.8156035407
0.8278066914
0.8027794153
0.8218707512
0.8351373271
0.8300271684
0.8295762810
0.8000165909
0.7918112307
0.8006917964
0.8132054378
0.8372556625
0.8091180696
0.7803397433
0.8097162669
0.7827426064
0.9476659572
0.9770917202
0.8110828670
0.8034564238
0.8909680777
0.7864647157
0.8350522859
0.9171273430
0.7815910742
0.7968857790
0.8106872128
0.9928363428
0.8558304742
0.8157834139
0.9487111542
0.9240676010
0.9688207776
0.7917643014
0.7998592963
0.7764916892
0.9738149825
0.7797666032
0.7909441065
0.9651821628
0.8088294718
0.7818554883
0.8184664077
0.7792903154
0.9593108223
0.9848751880
0.8117067195
0.8047590070
0.9081723803
0.7822655470
0.8533759796
0.9336743894
0.7850439913
0.7930417772
0.8102435992
0.9991490902
0.8772979186
0.8348905628
0.9581612699
0.9374415227
0.9706272797
0.7965302167
0.7955824479
0.7750874615
0.9880708725
0.7794591391
0.7973073712
0.9660878574
0.8680445247
0.8238989555
0.8045188167
0.7993910607
0.8307221741
0.8242126800
0.7765399382
0.8330007401
0.9252729710
0.9210320143
0.9012259452
0.8120561919
0.8972919477
0.8517752302
0.7884187038
0.8277818965
0.7987519116
0.8432562617
0.8198406897
0.8206052662
0.8326489908
0.8723592750
0.7914833523
0.8982627761
0.7857174920
0.7841493790
0.8723530356
0.7766978531
0.8761880734
0.8240231409
0.7970756543
0.7901602656
0.8223621411
0.8233456956
0.7826305133
0.8315344398
0.9308848840
0.9267222550
0.9022847648
0.8194580626
0.8945055884
0.8429838428
0.7813815567
0.8273027679
0.8078900055
0.8545908924
0.8099621466
0.8322627189
0.8327711429
0.8020932701
0.7914342164
0.7827207906
0.8656957762
0.7744025993
0.7883336939
0.7980224018
0.7897878868
0.8160782031
0.7994615709
0.7864652985
0.7915858192
0.7930266341
0.9339505524
0.8136474824
0.7937548799
0.8087612018
0.8136293089
0.8063406637
0.9022586739
0.7852993243
0.7791256885
0.7998629118
0.7772517390
0.8063142160
0.7967152812
0.9565315294
0.8013551587
0.8107115503
0.7758345612
0.7969741494
0.7852736647
0.7906514877
0.8222009046
0.9805237138
0.7943995816
0.7909602024
0.8442094712
0.7998930485
0.8029605561
0.8063793536
0.8035279695
0.7772430080
0.7885358177
0.8044910377
0.7815941766
0.8034734655
0.8036134311
0.9651799370
0.8097291322
0.7797613651
0.7759365732
0.8065747864
0.7853208982
0.8009982674
0.7994795186
0.7894489503
0.8204336268
0.8033757761
0.7923273308
0.7917442779
0.7928726319
0.9462781521
0.8111105285
0.7978727555
0.8110297639
0.8026749999
0.9193038530
0.7893123779
0.7747144537
0.8090167040
0.8090134202
0.7942626504
0.9581577075
0.8040791571
0.8082431333
0.7814178335
0.7930325335
0.7866651880
0.8220125971
0.9880760809
0.7858782731
0.7828356123
0.7854358945
0.8638603834
0.8063198040
0.8048544858
0.8017132394
0.7772907932
0.7862470183
0.8043477923
0.7794557719
0.7973273659
0.8056958600
0.9729593670
0.8257558823
0.7822620116
0.7782717818
0.9206644787
0.8277624494
0.8122776727
0.8106547467
0.8194561192
0.8834939531
0.9189835109
0.7885240023
0.8945156546
0.8010886796
0.7737492640
0.7795462296
0.8292026623
0.8139368401
0.9527951298
0.9210452946
0.9439052900
0.8271603121
0.8816459465
0.8895221336
0.8150691649
0.8090550669
0.9092198666
0.8055968985
0.8091333509
0.8680521814
0.9039911102
0.8311171708
0.8311225570
0.8539580361
0.7946011280
0.7764804178
0.8090052370
0.8633983701
0.8410346943
0.9678540312
0.9315850556
0.7976164858
0.8031983925
0.9153692787
0.9038975134
0.8207707520
0.9153977775
0.8035437466
0.9333418986
0.8280729155
0.8138622486
0.8084493913
0.8180601376
0.9182482643
0.7806494824
0.9022964503
0.8006773258
0.7861826998
0.8410385981
0.8119881609
0.9605725018
0.9267371213
0.9451889004
0.8242035794
0.8858176002
0.9059002820
0.8148941566
0.7986010596
0.9153825272
0.8078722334
0.8048733636
0.8747846311
0.9012364382
0.8429887510
0.8799659565
0.8719224934
0.8045307742
0.7768176508
0.8069962371
0.8723608926
0.9760377336
0.9308994073
0.9102745248
0.8075871596
0.8029475910
0.9251964429
0.9092068247
0.8366763301
0.7998230641
0.8334488565
0.9527976125
0.8895324959
0.8063407002
0.9678601233
0.7937550453
0.8059444357
0.8075969251
0.8621363467
0.7967202480
0.8899563458
0.9485570855
0.8785814860
0.8052882361
0.8715155960
0.7882824654
0.9119235007
0.8366906655
0.8540573425
0.7882831997
0.7750799085
0.7967166607
0.8899150900
0.8013342033
0.8117432930
0.8082316021
0.7965349071
0.8053064703
0.8740839283
0.9000804520
0.7980272686
0.7930701297
0.8156645065
0.9070472952
0.7883320805
0.9405331455
0.7930280238
0.7817372927
0.8117102894
0.8232029166
0.8004665078
0.8077541308
0.8970796051
0.8160479270
0.8042997590
0.7955849236
0.7891973666
0.8054948171
0.8278437338
0.9019905696
0.7892007810
0.7973720482
0.9206707921
0.8426512152
0.7856248967
0.9234052170
0.9439079001
0.7949434375
0.8444264784
0.9605768984
0.9059090693
0.8137984710
0.9760448080
0.7928731499
0.8117114956
0.7960170615
0.8207835993
0.8543542191
0.7947549468
0.8870328001
0.9552022706
0.8729369696
0.8862629982
0.9080052257
0.8539717552
0.8638116317
0.7899179392
0.7893386394
0.8006567166
0.8922684528
0.8069677757
0.7998779248
0.8045111661
0.8806253945
0.9125124141
0.7954989613
0.8246455370
0.9034140316
0.9411873307
0.7942643959
0.8054805825
0.8137983274
0.8161856903
0.8158352650
0.8966303588
0.8010071394
0.8056324249
0.8417153623
0.9006520310
0.7936000890
0.8036237535
0.9333454922
0.8343074958
0.7889899472
0.9329035125
0.9451934474
0.7995240580
0.8719345250