<VTKFile type="UnstructuredGrid" version="0.1">
	<UnstructuredGrid>
		<Piece NumberOfPoints="1862" NumberOfCells="3498">
			<CellData>
				<DataArray type="Int32" Name="type" NumberOfComponents="1" Format="ascii">
0
0
0
0
0
0
0
0
0
0
0
0
0
0
0
0
1
0
0
1
0
0
0
0
0
0
0
0
0
0
0
0
0
1
0
0
0
0
0
0
0
0
0
0
0
0
0
0
0
0
1
0
0
0
0
0
0
0
0
0
0
1
0
0
0
0
0
0
0
0
0
0
0
0
0
0
0
0
0
0
0
0
0
0
0
0
0
0
0
0
0
0
0
0
0
0
0
0
0
0
0
0
0
0
0
0
0
0
0
0
0
0
0
0
0
0
0
0
0
0
0
0
0
1
0
0
0
0
0
0
0
0
0
0
0
0
0
0
0
0
0
0
0
0
0
0
0
0
0
0
0
1
0
1
1
0
0
0
0
0
0
0
0
0
0
0
0
0
1
0
1
0
0
0
0
1
0
0
0
0
0
0
0
0
1
1
0
0
0
0
0
1
0
0
0
0
0
0
0
0
1
0
0
0
0
0
0
0
0
0
0
0
0
0
0
0
0
0
0
0
0
0
0
0
0
0
0
0
0
0
0
0
0
1
0
0
0
0
0
0
0
0
0
0
0
0
0
0
0
0
0
0
0
0
0
0
0
0
0
0
0
0
0
0
0
0
0
0
0
0
0
0
0
0
0
0
0
0
0
0
0
1
0
0
0
0
0
0
0
0
0
0
0
0
0
0
0
0
0
0
0
0
0
0
0
0
0
0
0
0
0
0
0
0
0
0
0
0
0
0
0
0
0
0
0
0
0
0
0
0
0
0
1
0
0
0
0
0
0
0
0
0
0
0
0
0
0
0
0
0
0
0
0
0
0
0
0
0
0
0
0
0
0
0
0
0
0
0
0
0
0
0
0
0
0
0
0
0
0
0
0
0
0
0
0
0
0
0
0
0
1
0
0
0
0
0
0
0
0
0
0
0
0
0
0
0
0
0
0
0
0
0
0
0
0
0
0
0
0
0
0
0
0
0
0
0
0
0
0
0
0
0
0
0
0
0
0
0
0
0
0
0
0
0
0
0
0
0
0
0
0
0
0
0
0
0
0
0
0
0
0
0
0
0
0
0
0
0
0
0
0
0
0
0
0
0
0
0
0
0
0
0
0
0
0
0
0
0
0
0
0
0
0
0
0
0
0
0
0
0
0
0
0
0
0
0
0
0
0
0
0
0
0
0
0
0
0
0
0
0
0
0
0
1
0
0
0
0
0
0
0
0
0
0
0
0
0
0
0
0
0
0
0
1
0
0
0
0
0
0
0
0
0
0
0
0
0
0
0
0
0
0
0
0
0
0
0
0
0
0
0
0
0
0
0
0
0
0
0
0
0
0
0
0
0
0
0
0
0
0
0
0
0
0
0
0
0
1
0
0
0
0
0
0
0
0
0
0
0
0
0
0
0
0
0
0
0
0
0
0
0
1
0
0
0
0
0
0
0
0
0
0
0
0
0
0
0
0
0
0
0
1
0
0
0
1
0
0
0
0
0
0
0
0
0
0
0
0
0
0
0
0
0
0
0
0
0
0
0
0
0
1
0
0
0
0
0
0
0
1
0
0
0
0
0
0
0
0
0
0
0
0
0
0
0
0
0
0
0
0
0
0
0
0
0
0
1
0
0
0
0
0
0
0
1
0
0
0
0
0
0
1
0
0
0
0
0
0
0
0
0
0
0
0
0
0
0
0
0
0
0
0
0
0
0
0
0
0
0
0
0
0
0
0
0
0
0
0
0
0
1
0
0
0
0
0
1
0
0
0
0
0
0
0
1
0
0
0
0
0
0
0
0
0
0
0
0
0
1
0
0
0
0
0
0
0
0
0
0
0
0
0
0
0
0
0
0
0
0
0
0
0
0
0
0
0
0
0
0
0
0
0
0
0
0
0
0
0
0
0
0
0
0
0
0
0
0
0
0
0
0
0
1
0
0
0
0
0
0
0
0
0
0
0
0
0
0
0
0
0
0
0
1
0
0
0
0
0
0
0
0
0
1
0
0
0
0
0
0
0
0
0
0
0
0
0
0
0
0
0
0
0
0
0
0
0
0
0
0
0
0
0
1
0
1
0
0
0
0
0
0
0
0
0
0
0
0
0
0
0
0
0
0
0
0
0
0
0
0
0
0
0
1
0
0
0
1
0
0
0
0
0
0
0
0
0
0
0
0
0
0
0
0
0
0
0
0
0
0
0
0
0
0
0
0
1
0
0
0
0
0
0
0
0
0
0
0
0
0
0
0
0
0
0
0
0
0
0
0
0
0
1
0
0
0
0
0
0
0
0
0
0
0
0
0
0
0
0
0
0
0
0
0
0
0
1
0
0
0
0
0
0
1
0
0
0
0
0
0
0
0
0
0
0
1
0
0
0
0
0
0
0
0
0
0
0
0
0
0
0
0
0
0
0
0
1
0
0
0
0
0
0
0
0
0
0
0
1
0
0
0
0
0
0
0
0
0
0
0
0
0
0
0
0
0
0
0
0
0
1
0
0
0
0
0
0
0
0
0
1
1
0
1
0
1
0
0
0
0
0
0
0
0
0
0
0
1
0
0
0
0
0
1
1
0
0
0
0
0
0
1
0
0
0
0
0
1
1
1
0
0
0
0
0
0
0
0
0
0
0
0
1
1
0
0
1
0
0
0
0
0
1
0
0
0
1
0
1
0
0
0
0
0
0
0
1
0
0
0
0
0
0
0
1
0
0
1
0
0
0
0
0
0
0
0
0
0
0
0
0
0
0
1
0
0
0
0
0
0
0
0
0
0
0
0
0
0
0
0
0
0
0
0
0
0
0
0
0
0
0
0
0
0
0
0
0
0
0
0
1
0
0
0
0
0
0
1
0
0
0
1
0
0
0
0
0
0
0
0
0
0
0
1
0
0
0
0
0
0
0
0
0
0
0
0
0
0
0
0
0
0
0
0
0
0
0
0
0
0
0
0
0
0
0
0
0
0
0
0
0
0
0
0
1
1
0
0
0
0
0
0
0
0
0
0
0
0
0
1
0
0
0
0
0
0
0
0
0
0
0
0
0
0
0
0
0
0
0
0
0
0
0
0
0
0
0
0
0
0
0
0
0
0
0
0
0
0
0
0
0
0
0
0
0
0
0
0
0
0
0
0
0
0
0
0
0
0
0
0
0
0
0
0
0
0
0
0
0
0
0
0
1
1
0
0
0
0
0
0
0
0
1
0
0
0
0
0
0
0
0
0
0
0
0
0
0
0
0
0
0
0
0
0
0
0
1
0
0
0
0
0
0
0
0
0
0
0
0
0
0
0
0
1
0
0
0
0
0
0
0
0
0
0
0
0
0
0
0
0
0
0
0
0
0
0
0
0
0
0
0
0
0
0
0
0
0
0
0
0
0
0
0
0
0
0
0
0
0
0
0
0
0
0
0
0
0
0
0
0
0
0
0
0
0
0
0
0
0
0
0
0
0
0
0
0
0
0
0
0
0
0
0
0
0
0
0
0
0
0
0
0
0
0
1
1
0
0
0
0
0
1
0
0
0
0
0
0
0
0
0
0
0
0
1
0
0
0
0
0
0
0
0
0
0
0
0
0
0
0
0
0
0
0
0
0
0
0
0
0
0
0
0
0
0
0
0
0
0
0
0
0
0
0
0
0
0
0
0
0
0
0
0
0
0
0
0
0
1
0
1
0
0
0
0
0
0
0
0
0
0
0
0
0
0
0
0
0
0
1
0
0
0
0
0
0
0
0
0
0
0
0
0
0
0
0
0
0
0
0
0
0
0
0
0
0
0
0
0
0
0
0
0
0
0
0
0
0
0
0
0
0
0
0
0
0
0
0
0
0
0
0
0
0
0
0
0
0
0
0
0
0
0
0
0
0
0
0
0
0
1
0
0
0
0
0
0
0
0
0
0
1
0
0
0
0
0
0
0
0
0
0
0
0
0
0
0
0
0
0
0
0
0
0
0
0
0
0
0
0
0
0
0
0
0
0
0
0
0
1
0
0
0
0
0
0
0
0
0
0
0
0
0
0
0
0
0
0
0
0
0
0
0
0
0
0
0
0
0
0
0
0
0
0
0
0
0
0
0
0
0
0
0
0
0
0
0
0
0
0
0
0
0
0
0
0
0
0
0
0
0
0
0
0
0
0
0
0
0
0
0
0
0
0
0
0
0
0
0
0
0
1
0
0
0
0
0
0
0
0
0
0
0
0
0
0
0
0
0
0
0
0
0
0
0
0
0
0
0
0
0
0
0
0
0
0
0
0
0
0
0
0
0
0
0
0
0
0
0
0
0
0
0
0
0
0
0
0
0
0
0
0
0
0
0
0
0
0
0
0
0
0
0
0
0
0
0
0
0
0
0
0
0
0
0
0
0
0
0
0
0
0
0
0
0
0
0
0
0
0
0
0
0
0
0
0
0
0
0
0
0
0
0
0
0
0
0
0
0
0
0
0
0
0
0
1
0
0
0
0
0
0
0
0
0
0
0
0
0
0
0
0
0
0
0
0
0
0
0
0
0
0
0
0
0
0
0
0
0
0
0
0
0
0
0
0
0
0
0
0
0
0
0
0
0
0
0
0
0
0
0
0
0
0
0
0
0
0
0
0
0
0
0
0
0
0
0
0
0
0
0
0
0
0
0
0
0
1
0
0
0
0
0
0
0
1
0
0
0
0
0
0
0
0
0
0
0
0
0
0
0
0
0
0
0
0
0
0
0
0
0
0
0
0
0
0
0
0
0
0
0
0
0
1
0
0
0
0
0
0
0
0
0
0
0
0
0
0
0
0
0
0
0
0
0
1
0
0
0
0
0
0
0
0
0
0
0
0
1
1
0
0
0
0
0
0
0
0
0
0
0
0
0
0
0
1
1
0
1
0
0
0
0
0
0
0
0
0
1
0
0
0
0
0
0
1
0
0
0
0
0
0
0
0
0
0
1
0
0
0
0
1
0
1
0
0
0
0
0
0
0
1
0
0
0
1
0
0
0
1
0
1
1
0
0
1
1
0
0
0
1
0
0
0
1
0
0
0
0
0
0
0
0
0
1
0
0
0
0
0
0
1
0
0
0
0
0
0
0
0
0
0
0
0
0
0
0
0
0
0
0
0
0
0
0
0
0
0
0
1
0
0
1
0
0
0
0
0
0
0
0
0
0
0
0
0
0
0
0
0
0
1
0
0
1
0
0
0
0
0
0
0
0
0
0
0
1
0
0
1
0
0
0
0
0
0
0
0
0
0
0
1
1
0
0
0
0
0
0
0
0
0
0
0
0
1
0
0
0
0
0
0
0
0
0
0
0
0
0
0
0
0
0
1
0
0
0
0
0
0
0
0
0
0
0
0
0
0
0
0
0
1
0
0
0
0
0
0
0
0
0
0
0
0
0
0
0
0
0
0
0
0
0
0
0
0
0
0
0
0
0
0
0
0
0
0
0
0
0
0
0
0
1
0
0
0
0
0
0
0
0
0
0
0
0
0
0
0
0
0
0
0
0
0
0
0
0
0
0
0
0
0
0
0
0
0
0
0
0
0
0
0
0
0
0
0
0
0
1
0
0
0
0
0
0
0
0
0
0
0
0
0
0
0
0
0
0
0
0
0
0
0
0
0
0
0
0
0
0
0
0
0
0
0
0
0
0
0
0
0
0
0
0
0
0
0
1
0
0
0
0
0
0
0
0
0
0
1
0
0
0
0
0
0
0
0
0
0
0
0
0
0
0
1
0
0
1
0
0
0
0
0
0
0
0
0
0
0
0
0
0
0
0
0
0
0
0
0
0
0
1
0
0
0
0
0
0
0
0
0
0
0
0
0
0
0
0
0
0
0
0
0
0
0
0
0
0
0
0
0
0
0
0
0
0
0
1
0
0
0
0
0
0
0
0
0
0
0
0
0
0
0
0
0
0
0
0
0
0
0
0
0
0
0
0
0
0
0
0
0
0
0
0
0
0
0
0
0
0
0
0
0
0
0
0
0
0
0
0
0
0
0
0
0
0
0
0
0
0
0
0
0
0
0
0
0
0
0
0
0
0
0
0
1
0
0
0
0
0
0
0
0
0
0
0
0
0
0
0
0
0
0
0
0
0
0
0
0
0
0
0
0
0
0
0
0
0
0
0
0
0
0
0
1
0
0
0
0
0
0
0
0
0
0
0
0
1
1
0
0
0
0
0
0
0
0
0
0
0
0
0
0
0
0
0
0
0
0
0
0
0
0
0
0
0
0
0
0
0
0
0
0
0
0
0
0
0
0
0
0
0
0
0
0
0
0
0
0
0
0
0
0
0
0
0
0
0
0
0
0
0
0
0
0
0
0
0
0
0
0
0
0
0
0
0
0
0
0
0
0
0
0
0
0
0
0
0
0
0
0
0
0
0
0
0
0
0
0
0
1
0
1
0
0
0
0
0
0
0
1
1
1
1
0
0
0
0
0
0
0
0
0
0
0
0
0
0
0
0
0
0
0
0
0
0
0
0
0
0
0
0
1
1
0
0
0
0
0
0
0
0
0
0
0
0
0
0
0
0
0
0
1
0
0
0
0
0
0
0
1
1
0
1
1
0
0
1
0
0
0
0
0
0
0
1
0
1
0
0
0
0
0
0
0
0
0
0
0
0
0
0
0
0
0
0
0
0
0
0
0
0
0
0
0
1
1
0
0
0
1
1
0
0
0
0
1
0
0
1
0
1
0
0
0
0
0
1
0
0
0
1
0
0
0
0
0
0
0
0
0
0
0
0
0
0
0
0
0
0
0
0
0
0
0
0
0
0
0
1
0
0
0
0
0
0
1
0
0
0
0
0
0
0
0
0
0
0
0
0
0
0
0
0
0
0
0
0
0
0
0
0
0
0
0
0
1
0
1
0
0
0
0
0
0
0
1
0
0
0
0
0
0
0
0
0
0
0
1
0
0
0
0
0
0
0
0
0
1
0
0
0
0
0
0
0
1
0
0
0
0
0
0
0
1
0
0
0
0
0
0
0
0
0
0
0
0
0
0
0
0
0
0
0
1
0
1
0
0
0
0
0
1
0
0
0
0
0
0
0
0
0
0
0
0
0
0
0
0
0
0
0
0
0
0
0
0
0
1
0
1
0
0
0
0
0
0
0
0
0
1
0
0
0
0
0
1
0
0
0
0
0
0
0
0
0
0
0
0
0
0
0
1
0
0
0
0
0
0
0
0
1
0
0
0
0
0
0
0
0
0
0
0
0
0
0
0
0
0
0
0
0
0
0
0
0
0
0
0
0
0
0
1
0
0
0
0
0
0
0
0
0
0
0
0
0
0
0
0
1
0
0
0
0
0
0
0
0
1
0
0
0
0
0
0
0
0
0
1
0
0
0
0
0
1
0
0
0
0
0
0
0
0
0
0
0
0
0
0
0
0
0
0
0
1
0
0
0
0
0
0
1
0
0
0
0
0
0
0
0
1
0
0
0
0
0
0
0
0
0
0
0
0
0
0
1
0
0
1
0
0
0
1
0
0
0
0
0
0
0
0
0
0
0
0
0
0
0
0
1
0
0
0
0
0
0
0
0
0
0
1
0
1
0
0
0
0
0
0
1
0
0
0
0
0
0
0
0
0
0
0
0
0
0
0
0
0
0
0
0
0
0
0
0
0
0
0
1
1
0
0
0
0
0
0
1
0
0
0
0
0
0
0
0
0
0
0
0
0
1
0
0
0
0
0
0
0
1
0
0
0
0
0
0
0
0
0
0
0
0
0
0
0
0
0
0
0
0
0
0
0
0
0
0
0
1
0
0
0
0
0
0
0
0
0
0
1
0
0
1
0
0
0
0
0
0
0
0
0
0
0
0
0
0
0
0
0
0
0
0
0
0
0
0
0
0
0
0
0
1
0
0
0
0
0
0
0
1
0
0
0
0
0
0
0
1
0
0
0
0
1
0
0
0
0
0
0
0
0
0
0
0
1
0
1
0
0
0
1
0
				</DataArray>
				<DataArray type="Float64" Name="h" NumberOfComponents="1" Format="ascii">
0.9196860196
0.9197674319
0.9012340554
0.9160039797
0.8995059358
0.9044152264
0.9092863348
0.9236688201
0.9140079734
0.9337671035
0.9202987231
0.9063241058
0.9250414433
0.9264213280
0.9236342171
0.9320793290
0.9105118538
0.9328755205
0.9191578295
0.9204775744
0.8936173246
0.9230774151
0.9067311191
0.8935834008
0.9153399935
0.9376934045
0.9100304590
0.8704305749
0.8979575685
0.9295274226
0.9249711346
0.9062526682
0.9225872654
0.8995677938
0.8790245562
0.8894697154
0.8839056948
0.9010968622
0.8676454009
0.8911256788
0.8968485076
0.8735132525
0.9102944257
0.8922170783
0.8882414736
0.8776442261
0.9009661342
0.8757430398
0.8549288131
0.8511587337
0.8895911041
0.8846125567
0.8918721461
0.8605754192
0.8788072480
0.9034740408
0.8785124418
0.8713731342
0.8695159196
0.8660075258
0.8699817340
0.8711398212
0.8580926421
0.8843420203
0.8846211606
0.8596101886
0.8466411455
0.8546009292
0.8695043128
0.8708265726
0.8685691917
0.8791602758
0.8947682350
0.8603399226
0.8654714464
0.8507363118
0.8716182122
0.8670868105
0.8735108045
0.8583431707
0.8686930942
0.8571133564
0.8557795986
0.8502420112
0.8641199261
0.8479569487
0.8678545838
0.8445161642
0.8639644187
0.8538053844
0.8657366210
0.8523023107
0.8674838355
0.8504052841
0.8480858188
0.8505748461
0.8407589002
0.8635263988
0.8606149932
0.8676717380
0.8555618266
0.8692721466
0.8502776978
0.8729907195
0.9405324599
0.8417851373
0.8385247629
0.8561795676
0.8672267382
0.8511369845
0.8490362808
0.8528581047
0.8650381867
0.8624441772
0.8534973146
0.8646750043
0.8534203560
0.9389783463
0.8618883671
0.8570680103
0.9403863441
0.8445315128
0.8391377257
0.9439901309
0.8616215265
0.8578768032
0.8561944645
0.9458436805
0.8665758503
0.8628372018
0.8652353870
0.8418507400
0.8592854785
0.8674964604
0.9371741589
0.8647612997
0.9407652219
0.8656756830
0.8692748598
0.9276257283
0.9473695763
0.9406541451
0.8647921946
0.9171998758
0.8415576333
0.8669834634
0.9346389061
0.8610195779
0.9430271675
0.8609733185
0.9424513564
0.8661850723
0.8641638764
0.8634241490
0.8696118711
0.8632659456
0.8646317735
0.9448260496
0.8618109003
0.9509431910
0.9236394663
0.8625984128
0.9380465632
0.9481371654
0.9453021970
0.8604726156
0.9034405154
0.9329792881
0.9485851090
0.8622821419
0.8650039486
0.9508929955
0.8636771225
0.9451368769
0.8964068960
0.8632817430
0.9114959045
0.8569938402
0.8631810277
0.9485798738
0.8626513123
0.8800424831
0.9512508420
0.8326509129
0.9515220543
0.9536816024
0.8878115747
0.8622856313
0.9499613711
0.9542110794
0.8635239663
0.8630373449
0.9530590720
0.8719129731
0.8633862156
0.8580756168
0.9474975842
0.8486572073
0.8565868035
0.8584240441
0.9544494366
0.8293772991
0.9540005071
0.8614020271
0.8353262605
0.9513622365
0.9316556729
0.9424729545
0.8426930807
0.9110900631
0.8640741800
0.9529181153
0.9498440862
0.9526738514
0.9378520046
0.8488434057
0.9228082664
0.9491495460
0.8805086751
0.9523317331
0.8307531335
0.8468455235
0.8966758383
0.8369005845
0.8236453042
0.8558952564
0.8529677523
0.8282880623
0.8243336473
0.8505344187
0.8590515861
0.8421201941
0.8251356704
0.8568677899
0.8550512899
0.8320332246
0.8562697505
0.9269894228
0.9534248561
0.9044599542
0.8567230794
0.9397844461
0.9497850880
0.9046268351
0.9403377269
0.9280571750
0.9505691940
0.8723694386
0.9344196507
0.9471559685
0.9170404902
0.8730861131
0.9480406548
0.8410994040
0.8418932697
0.9512496948
0.9177189505
0.9353917547
0.9526833219
0.8383278768
0.8894713989
0.8160133375
0.8193516392
0.8286580767
0.8214744679
0.8534224025
0.8520487388
0.8234253235
0.8548220358
0.8397261216
0.8476388540
0.8891237596
0.8477427366
0.8278520809
0.8327663377
0.8177539558
0.8165889735
0.8234977388
0.8343073550
0.8210438324
0.8506670145
0.8531054002
0.8535034160
0.8511588168
0.8442841503
0.8435045152
0.8241022565
0.9215057793
0.9483439686
0.9476236063
0.9224024269
0.8490943794
0.9362120932
0.9372511907
0.8975074634
0.8503292769
0.8974013280
0.9298895561
0.9445874552
0.9512564049
0.9489682146
0.9309644872
0.8650835333
0.8354642359
0.8346073028
0.9107274298
0.8661344074
0.9111924996
0.9456005157
0.8097322824
0.8190542369
0.8113838828
0.8506110074
0.8173769096
0.8413376817
0.8299137264
0.8822987898
0.8407812962
0.8472842560
0.8816218650
0.8201616583
0.8135960496
0.8318266554
0.8487979063
0.8095128051
0.8153962464
0.8151006241
0.8492097361
0.8241880535
0.8356979469
0.8446933082
0.8460392669
0.8486186121
0.8128313713
0.8259593620
0.8140770136
0.8370795234
0.9161782994
0.8294756844
0.8906425782
0.8446695944
0.8901623595
0.9456232565
0.8432903747
0.9316769801
0.9154732218
0.9329058253
0.9446033139
0.8192370972
0.7999177513
0.8311359964
0.8014516506
0.9256343059
0.9425820923
0.8201292541
0.9041178613
0.7973667223
0.8596772246
0.9042822939
0.8037919258
0.8100705537
0.8208066244
0.9489722162
0.8584650910
0.8297376114
0.9245878857
0.8098719530
0.8027348909
0.7972496009
0.9453448511
0.7965755549
0.8088800988
0.9412237190
0.8419207333
0.8212902412
0.8122208493
0.8434068743
0.9255109887
0.8341442040
0.8056193898
0.8133039428
0.8329736147
0.8456135388
0.8756037031
0.8236098230
0.8744959955
0.8072612320
0.8111329269
0.8049568045
0.8757333935
0.8433035363
0.8097402857
0.8156738342
0.8232165466
0.8403770823
0.8177028326
0.9196288791
0.9042938741
0.8959157936
0.8420410722
0.8039637459
0.8377081808
0.8530898053
0.8273067708
0.8319750766
0.8440500568
0.8292555994
0.8090122669
0.8079887795
0.8644464613
0.8078031611
0.8040374854
0.8114099760
0.8001641565
0.9096149922
0.8226410621
0.8222044042
0.8832987585
0.8054322050
0.8007120635
0.8103657514
0.8171557743
0.9276944706
0.8149024866
0.8186695446
0.8024267867
0.8318470684
0.9421545945
0.8048763664
0.8387591707
0.7976764222
0.8167129046
0.7983482092
0.8128146350
0.7962176239
0.7985874317
0.8018301081
0.8168559085
0.8295062686
0.8111397440
0.8009896282
0.7963291346
0.9196992435
0.7987951250
0.8045809420
0.8974116175
0.7993060991
0.7988434596
0.8064106886
0.8014796407
0.7969379383
0.8336813226
0.9453460987
0.8043556193
0.8529955898
0.8171560915
0.8100328278
0.8076799028
0.7962804128
0.8089239116
0.9387385076
0.8263947289
0.9030909657
0.8399588675
0.8681528606
0.8131841808
0.7999246671
0.8030265865
0.8345658566
0.9219410187
0.8362461247
0.8772378928
0.8247945389
0.8487047100
0.8110231947
0.8045328479
0.8049440679
0.8664159648
0.9378499549
0.9217566151
0.9173528474
0.8240492938
0.9134502542
0.8384643132
0.8000580563
0.8020679788
0.8300289537
0.9115162484
0.8082037679
0.8995190369
0.8028209714
0.8058220435
0.8042567195
0.9340782510
0.9196273559
0.8863657411
0.8909452967
0.8022000496
0.8189529187
0.9119385830
0.7978858339
0.7990072473
0.8772157245
0.8959113015
0.8420398531
0.8628247546
0.8027073121
0.9412675572
0.8148219699
0.8005292794
0.9115206708
0.8352808960
0.7970778618
0.8772353326
0.8117857023
0.9378486497
0.7967281018
0.8054318289
0.9362110368
0.8782388193
0.8352809725
0.7979171742
0.8019538515
0.8245336799
0.9029532698
0.7996863447
0.9106973991
0.7969813100
0.8180012842
0.8377742057
0.7988606593
0.9030864113
0.7960345309
0.9207577896
0.9219339854
0.8413103277
0.9340751548
0.8909426126
0.9412666796
0.8180003460
0.8240503507
0.8509750548
0.8884194818
0.9397487941
0.8707504843
0.8912801316
0.9145181657
0.8487027920
0.8610000192
0.8957320870
0.8113225602
0.8800422144
0.9127332903
0.8241016883
0.9322284680
0.8168629698
0.8264743435
0.9019893960
0.8045176148
0.8105679372
0.8506346696
0.9073087689
0.8076877390
0.9134435994
0.8323051172
0.8168741753
0.8628215702
0.7999326380
0.7986463966
0.8336967586
0.8645993636
0.7997533938
0.7979276349
0.7978884514
0.8007115038
0.9310240089
0.8100046566
0.8069148898
0.7970786392
0.8477722619
0.8858370360
0.8064372477
0.7978871374
0.9073681449
0.8032841619
0.9149406836
0.8295013304
0.8114389863
0.7993080235
0.8975986000
0.8318570365
0.8431177121
0.8872732784
0.8323372979
0.8925915013
0.8043545929
0.8359605287
0.9347214088
0.8044241554
0.8553221799
0.8257185011
0.8604451256
0.8036384818
0.8968850374
0.8024451815
0.8849698606
0.8598239409
0.8005415987
0.8222115154
0.9037145296
0.8689967980
0.9215327794
0.7994228088
0.9018220530
0.8069144390
0.9066514438
0.7992470341
0.9207524261
0.8645946404
0.8377742159
0.9029472905
0.8126644591
0.8107917404
0.9268572043
0.9362088687
0.8733488890
0.9019230194
0.8005183945
0.9322255983
0.8903372621
0.8598239167
0.8992077329
0.8842868295
0.8264751605
0.8782326541
0.8506324763
0.9127273818
0.7989980085
0.8013971815
0.7985013606
0.8007663131
0.9397471953
0.8688125787
0.8504070385
0.8432745687
0.8051306837
0.7979112160
0.8241010012
0.8775391788
0.8018280696
0.9033807883
0.8797331306
0.9273656878
0.9099637455
0.9038116254
0.8551427973
0.8323337654
0.8912739158
0.7984193901
0.8910414501
0.9309776763
0.9171538209
0.7984052228
0.7996211352
0.8018404214
0.7981722533
0.9032510912
0.8676011365
0.9230221485
0.9013387704
0.8022451807
0.8026305407
0.8413094129
0.8771733237
0.8506027444
0.8953456292
0.7992118598
0.8975958476
0.8920835789
0.8027108436
0.8021590845
0.8643618886
0.8726341700
0.8003292708
0.8800132155
0.8845646737
0.9011432245
0.8013906325
0.8025072293
0.8017332658
0.8875145365
0.8939325876
0.9017776875
0.9008883561
0.8973032079
0.8013965976
0.8020022370
0.7990393738
0.8002486254
0.9046299456
0.8026769350
0.8022353796
0.9032059964
0.8013931216
0.8004030649
0.9037159493
0.8033606983
0.8800396471
0.8012829052
0.9020095025
0.8962109074
0.8042098281
0.9018226100
0.8029477002
0.8024165141
0.9073058942
0.8021434895
0.9075246480
0.9071281276
0.8017620969
0.8032573340
0.9181069455
0.9115816347
0.9098519927
0.9099232352
0.9116659671
0.9114223383
0.9063076741
0.9202680885
0.9205568127
0.9021925470
0.9043858991
0.8995408117
0.9022401295
0.9140512489
0.9235855400
0.9092446757
0.9305952712
0.9206001049
0.9114501880
0.9287091929
0.9328514552
0.9160300790
0.9012565844
0.9190699647
0.9295100265
0.9324649677
0.9045701903
0.9237145396
0.9376883143
0.9153231755
0.9337942312
0.9267298954
0.9251044842
0.8970457487
0.9288917641
0.9151535685
0.9306201376
0.9249490625
0.9287569133
0.8995665602
0.9225023012
0.9061329976
0.9175805979
0.8911099557
0.8713337127
0.9105160902
0.9321199785
0.9101673409
0.8675594452
0.9045791236
0.9324926521
0.8967868817
0.9264417275
0.9204929814
0.8970588967
0.9068607849
0.8741725136
0.9231721993
0.8874265610
0.9268049590
0.8936214225
0.9152742812
0.9155068130
0.8659429841
0.8757397161
0.9289508505
0.8882163734
0.8895894971
0.9008155152
0.8705005599
0.8936056596
0.8980361935
0.8784507848
0.8773720709
0.9101401763
0.8806902006
0.9354124045
0.8714290555
0.8743971595
0.8770817989
0.9176497113
0.8917711089
0.8741726638
0.8525671118
0.8569524518
0.9156331454
0.8874354014
0.8828256812
0.8659763237
0.8895050207
0.8845025483
0.9012449650
0.8744234613
0.8790296840
0.8581138302
0.8546112607
0.8678302372
0.8839079570
0.8843097947
0.8743996581
0.8720995841
0.8695166326
0.8923358776
0.8603526788
0.8649046709
0.8791524916
0.8946362616
0.8715992247
0.8787580863
0.8841776362
0.8806978253
0.8696283443
0.8770847361
0.8735341196
0.8716185370
0.8685729566
0.8619070525
0.8654801802
0.8774841814
0.8946085902
0.8695043254
0.8820012216
0.9354316052
0.8708243144
0.8828384529
0.8744252914
0.8569721306
0.8678459779
0.8534396324
0.8717418953
0.8481547091
0.8549009491
0.8846628688
0.8569386867
0.8777241913
0.8571063134
0.8502490256
0.8649306484
0.8525475066
0.8511442401
0.8699805852
0.8711405086
0.8947507621
0.8685176538
0.8618896769
0.8695106522
0.8697035516
0.8648925774
0.8565329928
0.8871461100
0.8720985265
0.8820042691
0.8709819120
0.8788209050
0.8699535334
0.8715985494
0.8696309255
0.9035871279
0.8595973590
0.8659180794
0.8788638305
0.8605584586
0.8695109946
0.8659956708
0.8522389959
0.8713745572
0.8843003115
0.8674887166
0.8534189059
0.8729873333
0.8605475560
0.8649242315
0.8707327672
0.8717354294
0.8692722020
0.8436374649
0.8673579021
0.8494903010
0.8596432287
0.8556065602
0.8466386834
0.8756635144
0.8634366966
0.8698300917
0.8505302045
0.8665112762
0.8481574320
0.8676789749
0.8417666853
0.8570254984
0.8572319696
0.8595928073
0.8672340102
0.8528971111
0.8685182191
0.8659090491
0.8650459059
0.8709761330
0.8507974278
0.8459699488
0.8696960023
0.8670826949
0.8872596475
0.8654095637
0.8565951521
0.8490562811
0.8511287212
0.8699504538
0.8673534320
0.8571949220
0.8584222633
0.8698297763
0.8480154740
0.8445290961
0.8626076856
0.8756661352
0.9409584681
0.8665012086
0.8494739785
0.8642017992
0.8584228269
0.8678512769
0.8557315730
0.8686898357
0.8534367617
0.8735117854
0.8436580401
0.9403723953
0.8445257668
0.8708191605
0.8653997674
0.8418160105
0.8444336360
0.9405441963
0.8579110276
0.8641610013
0.8630567019
0.8639492607
0.8481179940
0.8503764111
0.8618151594
0.8537577046
0.8657223566
0.8607932731
0.8726209011
0.8616332912
0.8562107271
0.8459738431
0.8628552944
0.8502765172
0.8596118729
0.8409838305
0.8584072683
0.9409643531
0.8625894250
0.8595876045
0.9371665655
0.8647803811
0.8593072417
0.9405439172
0.8407915286
0.8415075958
0.8395731142
0.9406066106
0.8601692869
0.9405486565
0.8617912362
0.8624238615
0.8561435358
0.9384884930
0.8726221105
0.8630427092
0.8534820503
0.9430118554
0.8444402041
0.8648061678
0.9459782224
0.8646575739
0.8641499275
0.8669974053
0.8607676710
0.8385725523
0.9410645096
0.8439065343
0.8361154346
0.8660133627
0.8595848816
0.8595663101
0.9443574619
0.8660436497
0.8584413823
0.8684376300
0.8570478219
0.8410221166
0.8661944754
0.9389904584
0.8673916169
0.8618667870
0.9349967685
0.9424556332
0.8641728416
0.8696154048
0.9384886937
0.9459958410
0.9329653876
0.9452924336
0.8601583619
0.8624064479
0.9410717249
0.9469292008
0.8593307017
0.8367013951
0.8396047656
0.9440029319
0.8665662051
0.9236014886
0.9436535259
0.8391852289
0.8652212306
0.9335567107
0.9380607884
0.8672992457
0.8626085787
0.9458606319
0.8618173470
0.8684302170
0.9407598255
0.8674866078
0.8640429178
0.8336932297
0.8584035118
0.8648476644
0.8656645114
0.8636839443
0.9301537420
0.9447315178
0.8692700941
0.9349883363
0.8361707682
0.9443573295
0.8660037702
0.8439529601
0.8673827869
0.8622931285
0.8685494835
0.8660337542
0.8650126048
0.9451331652
0.8609672246
0.9512408257
0.8350260413
0.9436695922
0.9469422020
0.8595242018
0.8631810346
0.8629018078
0.9172512616
0.8610079194
0.9346390170
0.9485731596
0.8593232086
0.9334936871
0.8367426168
0.9504343966
0.9473789271
0.8626695175
0.8672894960
0.9114416114
0.8684284756
0.9276745392
0.8623977124
0.9496826875
0.9499478602
0.8632507827
0.8646239202
0.9447318142
0.8305561145
0.8640345858
0.9380560451
0.9301703696
0.8337408577
0.9515079494
0.8648320161
0.8634158897
0.9448296867
0.8685419005
0.8877211379
0.8323747026
0.8633907068
0.9035266290
0.9496924792
0.8594951669
0.8580969145
0.9504425642
0.8628962540
0.8684226960
0.8598251501
0.9517948302
0.8631727308
0.8350741639
0.9489501161
0.8630426729
0.8674625172
0.9481444120
0.8604507583
0.8718406476
0.8584803666
0.9509535211
0.8293303415
0.8620014605
0.9509062978
0.9539854388
0.8964906087
0.8614047239
0.8306065881
0.9486020386
0.9544326813
0.9381082749
0.8565298286
0.8613131477
0.8631762627
0.9481817349
0.9518069237
0.9489615828
0.9529046551
0.8584725955
0.8598083181
0.9503425059
0.8567443694
0.8801154759
0.8674544008
0.8632772086
0.8324257282
0.9537592177
0.9540775497
0.8569800649
0.9498379112
0.8426507068
0.8635816657
0.8590535815
0.8619985442
0.9542273376
0.8613090544
0.8600216554
0.8598902688
0.8326937909
0.9536964956
0.8622813696
0.8307216197
0.9505620000
0.9280502684
0.9469288954
0.9403482049
0.8486982477
0.9540932424
0.8350045134
0.9524521571
0.9045814210
0.9461522449
0.9481853037
0.8562346113
0.9530721172
0.9535803447
0.8567137551
0.9475005774
0.9529902927
0.9354044893
0.9445000173
0.8410794987
0.9176952142
0.9480372025
0.8723279224
0.9537738908
0.9534126616
0.9503504041
0.8570840639
0.8280502585
0.8353541991
0.8600174901
0.8435069544
0.8890738194
0.8598857071
0.8326936621
0.8210082548
0.8535098415
0.8507161928
0.8544377997
0.8240379655
0.8234065966
0.8477795958
0.8584194622
0.8382858328
0.8214242085
0.8548253118
0.8526389124
0.8534431663
0.8277763846
0.8641218300
0.9223996602
0.9439007666
0.9523424352
0.8973772749
0.8490788591
0.9461530036
0.8350270709
0.9469313670
0.9517126857
0.8281912982
0.9372628158
0.9483392872
0.9524634111
0.9111311882
0.9424702341
0.9316580406
0.9513706963
0.8805611932
0.9309734190
0.9455997910
0.9535938704
0.9111752804
0.8650592407
0.9491546447
0.8488801294
0.8346006263
0.9419076048
0.9519364710
0.9228317129
0.9444998141
0.9378407585
0.9530010128
0.8421280852
0.8815991553
0.8225042415
0.8140586259
0.8153406535
0.8240979013
0.8251981955
0.8525994739
0.8550379175
0.8492156112
0.8243647896
0.8568634576
0.8498087008
0.8356654516
0.8447167352
0.8967350754
0.8570796703
0.8504871981
0.8320959000
0.8369438538
0.8173729036
0.8135624256
0.8189756060
0.8298395754
0.8236958158
0.8529191435
0.8544058709
0.8506131717
0.8280638972
0.8558950327
0.8488222519
0.8407924650
0.8472374096
0.8468189972
0.8283552503
0.9161801817
0.9409082682
0.9497910571
0.9517219359
0.9456207977
0.9269905824
0.8567526570
0.8232982058
0.9329154760
0.8282016313
0.9397771582
0.8901549164
0.8432870203
0.9044871312
0.9438994594
0.9256421822
0.9425832739
0.9519442591
0.9501144899
0.9344084627
0.8731153773
0.8297365565
0.9384364589
0.8419102651
0.9419030989
0.9042790459
0.8584541125
0.9170560468
0.9471582948
0.8090088931
0.8235827130
0.8079581589
0.8531032870
0.8177653626
0.8377058031
0.8343543182
0.8744831455
0.8442591491
0.8472075653
0.8442705831
0.8440521836
0.8184764057
0.8895004911
0.8155966533
0.8166437383
0.8272539221
0.8511408304
0.8072479686
0.8194262267
0.8110768892
0.8520472769
0.8225066473
0.8411616266
0.8287358206
0.8397291519
0.8476021754
0.8434291811
0.8456111175
0.8133068851
0.8212124954
0.8160462504
0.8329592374
0.8497770346
0.8226337294
0.7976756954
0.8197111151
0.8054189815
0.9215036675
0.9409048439
0.8254461836
0.8165402475
0.8832946315
0.7988348158
0.8387592502
0.8975151899
0.8002744449
0.8148932189
0.8230332254
0.9476273182
0.8503412564
0.8233011814
0.9277024981
0.9096208779
0.9362043496
0.8040377179
0.8082772956
0.7985821044
0.9421541157
0.7963522973
0.8079396535
0.9371060276
0.8234232802
0.7990401077
0.8263936364
0.8043595031
0.9298810732
0.9445880137
0.8271144527
0.8161326307
0.8974124217
0.7966698774
0.8529953885
0.9107325787
0.8012462696
0.8140215319
0.8245216612
0.9501195551
0.8661529836
0.8354696025
0.9339637918
0.9197075912
0.9384302494
0.8077369665
0.8045860672
0.7984726942
0.9475824538
0.7977207796
0.8123523599
0.9387408344
0.8694321461
0.8384532381
0.8159371732
0.8260306343
0.8320604788
0.8378766982
0.8081589966
0.8460169609
0.9217612721
0.9200607436
0.9011638455
0.8300160169
0.8995224678
0.8516910223
0.8058240675
0.8411026971
0.8128298372
0.8457603701
0.8370831441
0.8255182110
0.8486197328
0.8681488053
0.8189039094
0.8823111284
0.8095414743
0.8151778495
0.8727705643
0.8026972736
0.8772191098
0.8399494214
0.8110257083
0.8202479964
0.8257193568
0.8362523050
0.8131311492
0.8442316262
0.9252480777
0.9235281377
0.9040089910
0.8342151670
0.8962019270
0.8445353148
0.8030247866
0.8413154512
0.8184757204
0.8553241330
0.8318604920
0.8345667270
0.8472811930
0.8247700874
0.8097412152
0.8114373914
0.8664187434
0.8045069739
0.8024579181
0.8009849527
0.8157424032
0.8307323245
0.8054326585
0.7988352224
0.7979169656
0.7961290549
0.9154666907
0.8269234770
0.7970133959
0.8264730788
0.8269230470
0.8099693195
0.8906443662
0.8089629637
0.8007182791
0.8082772624
0.7977621291
0.8147082955
0.8004526376
0.9316703389
0.8190371595
0.8230428638
0.8055856499
0.8045102750
0.8089437106
0.7988559308
0.8356129449
0.9446048662
0.8080478495
0.8079505000
0.8446710131
0.8098719507
0.8103662387
0.8113125983
0.8105587451
0.7977624370
0.7960322347
0.8128467559
0.8002829451
0.8165472066
0.8062442142
0.9371018587
0.8197117247
0.7963543895
0.8007456439
0.8186562615
0.7999183078
0.8035162936
0.8213553931
0.8048682521
0.8336935028
0.8091287005
0.8027346430
0.7994617183
0.7958717222
0.9245803904
0.8254552267
0.7977744218
0.8267080038
0.8062989022
0.9041140605
0.8100831187
0.8005192377
0.8151821918
0.8151824694
0.7976303544
0.9339578814
0.8192425815
0.8201391543
0.8102767510
0.8035924590
0.7979783650
0.8374238601
0.9475849187
0.8033730398
0.7962157211
0.8038028209
0.8596829637
0.8147089890
0.8126535707
0.8106568453
0.7972521845
0.7957346677
0.8149129373
0.7977252350
0.8123624348
0.8063624117
0.9412230986
0.8311372224
0.7966703296
0.8014623299
0.9091765619
0.8433089053
0.7994182699
0.8036306940
0.8341812196
0.8756108285
0.9173468657
0.8177690096
0.8961981944
0.7997539693
0.8021900366
0.8039689169
0.8319742385
0.8044161652
0.9324594985
0.9200577198
0.9264271339
0.8403790389
0.8826896327
0.8839502574
0.8018214274
0.8292747680
0.9105650710
0.7971990753
0.8004619499
0.8694285065
0.9042895728
0.8349750186
0.8349745865
0.8545709316
0.8097370684
0.8078488300
0.8071726884
0.8644436528
0.8414489750
0.9407949498
0.9255076475
0.8100052466
0.8020975173
0.9159012630
0.9062857924
0.8282015702
0.9164052484
0.7971720686
0.9187774503
0.8419178583
0.8005358971
0.8033782088
0.8341442205
0.9158776665
0.8122856446
0.9040056222
0.8014043412
0.8056175538
0.8414477591
0.8051223729
0.9370626370
0.9235268339
0.9287080692
0.8378047487
0.8872770552
0.8976430390
0.8031564906
0.8236564490
0.9158959628
0.7973066044
0.7997230492
0.8757298677
0.9011591073
0.8445340984
0.8809519797
0.8693503206
0.8159384911
0.8049796894
0.8064597621
0.8727677262
0.9440820896
0.9252468951
0.9091767077
0.8179446408
0.7994187726
0.9212884735
0.9105691909
0.8405493071
0.7964060568
0.8345782774
0.9324551874
0.8839489499
0.8099684427
0.9407945291
0.7970168161
0.8111388469
0.8179452859
0.8602298716
0.8035829834
0.8930850379
0.9328521840
0.8783425603
0.8139415135
0.8718561975
0.7968362686
0.9150652424
0.8405487723
0.8539981053
0.7968369646
0.7984766914
0.8004520827
0.8922850495
0.8190295729
0.8271311365
0.8117864466
0.8077374918
0.8139505372
0.8744791022
0.8969047128
0.8009912670
0.8140373397
0.8184079885
0.9115770590
0.8024577718
0.9271483569
0.7961300327
0.7965789501
0.8158959431
0.8242051461
0.8128067179
0.8171415673
0.9035412659
0.8294843810
0.8041486151
0.8045855011
0.8004828382
0.8082083710
0.8333539152
0.9058415546
0.8004890002
0.8070935282
0.9091702080
0.8411752201
0.7962466756
0.9159256499
0.9264208450
0.8088881879
0.8436333438
0.9370608272
0.8976393830
0.8165137926
0.9440824202
0.7958737921
0.8158949750
0.7969808867
0.8282021930
0.8532683890
0.8009891201
0.8894019701
0.9364150259
0.8726356332
0.8851239764
0.9133701283
0.8545686599
0.8630591919
0.8001641882
0.7962817719
0.8045801278
0.8962127650
0.8208170609
0.7996810178
0.8128570201
0.8815048512
0.9071923028
0.7988000409
0.8259863519
0.9102560317
0.9287379288
0.7976303651
0.8081987750
0.8165146640
0.8185514944
0.8230746473
0.9020110403
0.8035239079
0.8089332401
0.8452724374
0.9068770637
0.8014857064
0.8062522684
0.9187701665
0.8342587084
0.7969412356
0.9229972570
0.9287025058
0.8213747181
0.8693485859