<VTKFile type="UnstructuredGrid" version="0.1">
	<UnstructuredGrid>
		<Piece NumberOfPoints="1862" NumberOfCells="3498">
			<CellData>
				<DataArray type="Int32" Name="type" NumberOfComponents="1" Format="ascii">
0
0
0
0
0
0
0
0
0
0
0
0
0
0
0
0
1
0
0
1
0
0
0
0
0
0
0
0
0
0
0
0
0
1
0
0
0
0
0
0
0
0
0
0
0
0
0
0
0
0
1
0
0
0
0
0
0
0
0
0
0
1
0
0
0
0
0
0
0
0
0
0
0
0
0
0
0
0
0
0
0
0
0
0
0
0
0
0
0
0
0
0
0
0
0
0
0
0
0
0
0
0
0
0
0
0
0
0
0
0
0
0
0
0
0
0
0
0
0
0
0
0
0
1
0
0
0
0
0
0
0
0
0
0
0
0
0
0
0
0
0
0
0
0
0
0
0
0
0
0
0
1
0
1
1
0
0
0
0
0
0
0
0
0
0
0
0
0
1
0
1
0
0
0
0
1
0
0
0
0
0
0
0
0
1
1
0
0
0
0
0
1
0
0
0
0
0
0
0
0
1
0
0
0
0
0
0
0
0
0
0
0
0
0
0
0
0
0
0
0
0
0
0
0
0
0
0
0
0
0
0
0
0
1
0
0
0
0
0
0
0
0
0
0
0
0
0
0
0
0
0
0
0
0
0
0
0
0
0
0
0
0
0
0
0
0
0
0
0
0
0
0
0
0
0
0
0
0
0
0
0
1
0
0
0
0
0
0
0
0
0
0
0
0
0
0
0
0
0
0
0
0
0
0
0
0
0
0
0
0
0
0
0
0
0
0
0
0
0
0
0
0
0
0
0
0
0
0
0
0
0
0
1
0
0
0
0
0
0
0
0
0
0
0
0
0
0
0
0
0
0
0
0
0
0
0
0
0
0
0
0
0
0
0
0
0
0
0
0
0
0
0
0
0
0
0
0
0
0
0
0
0
0
0
0
0
0
0
0
0
1
0
0
0
0
0
0
0
0
0
0
0
0
0
0
0
0
0
0
0
0
0
0
0
0
0
0
0
0
0
0
0
0
0
0
0
0
0
0
0
0
0
0
0
0
0
0
0
0
0
0
0
0
0
0
0
0
0
0
0
0
0
0
0
0
0
0
0
0
0
0
0
0
0
0
0
0
0
0
0
0
0
0
0
0
0
0
0
0
0
0
0
0
0
0
0
0
0
0
0
0
0
0
0
0
0
0
0
0
0
0
0
0
0
0
0
0
0
0
0
0
0
0
0
0
0
0
0
0
0
0
0
0
1
0
0
0
0
0
0
0
0
0
0
0
0
0
0
0
0
0
0
0
1
0
0
0
0
0
0
0
0
0
0
0
0
0
0
0
0
0
0
0
0
0
0
0
0
0
0
0
0
0
0
0
0
0
0
0
0
0
0
0
0
0
0
0
0
0
0
0
0
0
0
0
0
0
1
0
0
0
0
0
0
0
0
0
0
0
0
0
0
0
0
0
0
0
0
0
0
0
1
0
0
0
0
0
0
0
0
0
0
0
0
0
0
0
0
0
0
0
1
0
0
0
1
0
0
0
0
0
0
0
0
0
0
0
0
0
0
0
0
0
0
0
0
0
0
0
0
0
1
0
0
0
0
0
0
0
1
0
0
0
0
0
0
0
0
0
0
0
0
0
0
0
0
0
0
0
0
0
0
0
0
0
0
1
0
0
0
0
0
0
0
1
0
0
0
0
0
0
1
0
0
0
0
0
0
0
0
0
0
0
0
0
0
0
0
0
0
0
0
0
0
0
0
0
0
0
0
0
0
0
0
0
0
0
0
0
0
1
0
0
0
0
0
1
0
0
0
0
0
0
0
1
0
0
0
0
0
0
0
0
0
0
0
0
0
1
0
0
0
0
0
0
0
0
0
0
0
0
0
0
0
0
0
0
0
0
0
0
0
0
0
0
0
0
0
0
0
0
0
0
0
0
0
0
0
0
0
0
0
0
0
0
0
0
0
0
0
0
0
1
0
0
0
0
0
0
0
0
0
0
0
0
0
0
0
0
0
0
0
1
0
0
0
0
0
0
0
0
0
1
0
0
0
0
0
0
0
0
0
0
0
0
0
0
0
0
0
0
0
0
0
0
0
0
0
0
0
0
0
1
0
1
0
0
0
0
0
0
0
0
0
0
0
0
0
0
0
0
0
0
0
0
0
0
0
0
0
0
0
1
0
0
0
1
0
0
0
0
0
0
0
0
0
0
0
0
0
0
0
0
0
0
0
0
0
0
0
0
0
0
0
0
1
0
0
0
0
0
0
0
0
0
0
0
0
0
0
0
0
0
0
0
0
0
0
0
0
0
1
0
0
0
0
0
0
0
0
0
0
0
0
0
0
0
0
0
0
0
0
0
0
0
1
0
0
0
0
0
0
1
0
0
0
0
0
0
0
0
0
0
0
1
0
0
0
0
0
0
0
0
0
0
0
0
0
0
0
0
0
0
0
0
1
0
0
0
0
0
0
0
0
0
0
0
1
0
0
0
0
0
0
0
0
0
0
0
0
0
0
0
0
0
0
0
0
0
1
0
0
0
0
0
0
0
0
0
1
1
0
1
0
1
0
0
0
0
0
0
0
0
0
0
0
1
0
0
0
0
0
1
1
0
0
0
0
0
0
1
0
0
0
0
0
1
1
1
0
0
0
0
0
0
0
0
0
0
0
0
1
1
0
0
1
0
0
0
0
0
1
0
0
0
1
0
1
0
0
0
0
0
0
0
1
0
0
0
0
0
0
0
1
0
0
1
0
0
0
0
0
0
0
0
0
0
0
0
0
0
0
1
0
0
0
0
0
0
0
0
0
0
0
0
0
0
0
0
0
0
0
0
0
0
0
0
0
0
0
0
0
0
0
0
0
0
0
0
1
0
0
0
0
0
0
1
0
0
0
1
0
0
0
0
0
0
0
0
0
0
0
1
0
0
0
0
0
0
0
0
0
0
0
0
0
0
0
0
0
0
0
0
0
0
0
0
0
0
0
0
0
0
0
0
0
0
0
0
0
0
0
0
1
1
0
0
0
0
0
0
0
0
0
0
0
0
0
1
0
0
0
0
0
0
0
0
0
0
0
0
0
0
0
0
0
0
0
0
0
0
0
0
0
0
0
0
0
0
0
0
0
0
0
0
0
0
0
0
0
0
0
0
0
0
0
0
0
0
0
0
0
0
0
0
0
0
0
0
0
0
0
0
0
0
0
0
0
0
0
0
1
1
0
0
0
0
0
0
0
0
1
0
0
0
0
0
0
0
0
0
0
0
0
0
0
0
0
0
0
0
0
0
0
0
1
0
0
0
0
0
0
0
0
0
0
0
0
0
0
0
0
1
0
0
0
0
0
0
0
0
0
0
0
0
0
0
0
0
0
0
0
0
0
0
0
0
0
0
0
0
0
0
0
0
0
0
0
0
0
0
0
0
0
0
0
0
0
0
0
0
0
0
0
0
0
0
0
0
0
0
0
0
0
0
0
0
0
0
0
0
0
0
0
0
0
0
0
0
0
0
0
0
0
0
0
0
0
0
0
0
0
0
1
1
0
0
0
0
0
1
0
0
0
0
0
0
0
0
0
0
0
0
1
0
0
0
0
0
0
0
0
0
0
0
0
0
0
0
0
0
0
0
0
0
0
0
0
0
0
0
0
0
0
0
0
0
0
0
0
0
0
0
0
0
0
0
0
0
0
0
0
0
0
0
0
0
1
0
1
0
0
0
0
0
0
0
0
0
0
0
0
0
0
0
0
0
0
1
0
0
0
0
0
0
0
0
0
0
0
0
0
0
0
0
0
0
0
0
0
0
0
0
0
0
0
0
0
0
0
0
0
0
0
0
0
0
0
0
0
0
0
0
0
0
0
0
0
0
0
0
0
0
0
0
0
0
0
0
0
0
0
0
0
0
0
0
0
0
1
0
0
0
0
0
0
0
0
0
0
1
0
0
0
0
0
0
0
0
0
0
0
0
0
0
0
0
0
0
0
0
0
0
0
0
0
0
0
0
0
0
0
0
0
0
0
0
0
1
0
0
0
0
0
0
0
0
0
0
0
0
0
0
0
0
0
0
0
0
0
0
0
0
0
0
0
0
0
0
0
0
0
0
0
0
0
0
0
0
0
0
0
0
0
0
0
0
0
0
0
0
0
0
0
0
0
0
0
0
0
0
0
0
0
0
0
0
0
0
0
0
0
0
0
0
0
0
0
0
0
1
0
0
0
0
0
0
0
0
0
0
0
0
0
0
0
0
0
0
0
0
0
0
0
0
0
0
0
0
0
0
0
0
0
0
0
0
0
0
0
0
0
0
0
0
0
0
0
0
0
0
0
0
0
0
0
0
0
0
0
0
0
0
0
0
0
0
0
0
0
0
0
0
0
0
0
0
0
0
0
0
0
0
0
0
0
0
0
0
0
0
0
0
0
0
0
0
0
0
0
0
0
0
0
0
0
0
0
0
0
0
0
0
0
0
0
0
0
0
0
0
0
0
0
1
0
0
0
0
0
0
0
0
0
0
0
0
0
0
0
0
0
0
0
0
0
0
0
0
0
0
0
0
0
0
0
0
0
0
0
0
0
0
0
0
0
0
0
0
0
0
0
0
0
0
0
0
0
0
0
0
0
0
0
0
0
0
0
0
0
0
0
0
0
0
0
0
0
0
0
0
0
0
0
0
0
1
0
0
0
0
0
0
0
1
0
0
0
0
0
0
0
0
0
0
0
0
0
0
0
0
0
0
0
0
0
0
0
0
0
0
0
0
0
0
0
0
0
0
0
0
0
1
0
0
0
0
0
0
0
0
0
0
0
0
0
0
0
0
0
0
0
0
0
1
0
0
0
0
0
0
0
0
0
0
0
0
1
1
0
0
0
0
0
0
0
0
0
0
0
0
0
0
0
1
1
0
1
0
0
0
0
0
0
0
0
0
1
0
0
0
0
0
0
1
0
0
0
0
0
0
0
0
0
0
1
0
0
0
0
1
0
1
0
0
0
0
0
0
0
1
0
0
0
1
0
0
0
1
0
1
1
0
0
1
1
0
0
0
1
0
0
0
1
0
0
0
0
0
0
0
0
0
1
0
0
0
0
0
0
1
0
0
0
0
0
0
0
0
0
0
0
0
0
0
0
0
0
0
0
0
0
0
0
0
0
0
0
1
0
0
1
0
0
0
0
0
0
0
0
0
0
0
0
0
0
0
0
0
0
1
0
0
1
0
0
0
0
0
0
0
0
0
0
0
1
0
0
1
0
0
0
0
0
0
0
0
0
0
0
1
1
0
0
0
0
0
0
0
0
0
0
0
0
1
0
0
0
0
0
0
0
0
0
0
0
0
0
0
0
0
0
1
0
0
0
0
0
0
0
0
0
0
0
0
0
0
0
0
0
1
0
0
0
0
0
0
0
0
0
0
0
0
0
0
0
0
0
0
0
0
0
0
0
0
0
0
0
0
0
0
0
0
0
0
0
0
0
0
0
0
1
0
0
0
0
0
0
0
0
0
0
0
0
0
0
0
0
0
0
0
0
0
0
0
0
0
0
0
0
0
0
0
0
0
0
0
0
0
0
0
0
0
0
0
0
0
1
0
0
0
0
0
0
0
0
0
0
0
0
0
0
0
0
0
0
0
0
0
0
0
0
0
0
0
0
0
0
0
0
0
0
0
0
0
0
0
0
0
0
0
0
0
0
0
1
0
0
0
0
0
0
0
0
0
0
1
0
0
0
0
0
0
0
0
0
0
0
0
0
0
0
1
0
0
1
0
0
0
0
0
0
0
0
0
0
0
0
0
0
0
0
0
0
0
0
0
0
0
1
0
0
0
0
0
0
0
0
0
0
0
0
0
0
0
0
0
0
0
0
0
0
0
0
0
0
0
0
0
0
0
0
0
0
0
1
0
0
0
0
0
0
0
0
0
0
0
0
0
0
0
0
0
0
0
0
0
0
0
0
0
0
0
0
0
0
0
0
0
0
0
0
0
0
0
0
0
0
0
0
0
0
0
0
0
0
0
0
0
0
0
0
0
0
0
0
0
0
0
0
0
0
0
0
0
0
0
0
0
0
0
0
1
0
0
0
0
0
0
0
0
0
0
0
0
0
0
0
0
0
0
0
0
0
0
0
0
0
0
0
0
0
0
0
0
0
0
0
0
0
0
0
1
0
0
0
0
0
0
0
0
0
0
0
0
1
1
0
0
0
0
0
0
0
0
0
0
0
0
0
0
0
0
0
0
0
0
0
0
0
0
0
0
0
0
0
0
0
0
0
0
0
0
0
0
0
0
0
0
0
0
0
0
0
0
0
0
0
0
0
0
0
0
0
0
0
0
0
0
0
0
0
0
0
0
0
0
0
0
0
0
0
0
0
0
0
0
0
0
0
0
0
0
0
0
0
0
0
0
0
0
0
0
0
0
0
0
0
1
0
1
0
0
0
0
0
0
0
1
1
1
1
0
0
0
0
0
0
0
0
0
0
0
0
0
0
0
0
0
0
0
0
0
0
0
0
0
0
0
0
1
1
0
0
0
0
0
0
0
0
0
0
0
0
0
0
0
0
0
0
1
0
0
0
0
0
0
0
1
1
0
1
1
0
0
1
0
0
0
0
0
0
0
1
0
1
0
0
0
0
0
0
0
0
0
0
0
0
0
0
0
0
0
0
0
0
0
0
0
0
0
0
0
1
1
0
0
0
1
1
0
0
0
0
1
0
0
1
0
1
0
0
0
0
0
1
0
0
0
1
0
0
0
0
0
0
0
0
0
0
0
0
0
0
0
0
0
0
0
0
0
0
0
0
0
0
0
1
0
0
0
0
0
0
1
0
0
0
0
0
0
0
0
0
0
0
0
0
0
0
0
0
0
0
0
0
0
0
0
0
0
0
0
0
1
0
1
0
0
0
0
0
0
0
1
0
0
0
0
0
0
0
0
0
0
0
1
0
0
0
0
0
0
0
0
0
1
0
0
0
0
0
0
0
1
0
0
0
0
0
0
0
1
0
0
0
0
0
0
0
0
0
0
0
0
0
0
0
0
0
0
0
1
0
1
0
0
0
0
0
1
0
0
0
0
0
0
0
0
0
0
0
0
0
0
0
0
0
0
0
0
0
0
0
0
0
1
0
1
0
0
0
0
0
0
0
0
0
1
0
0
0
0
0
1
0
0
0
0
0
0
0
0
0
0
0
0
0
0
0
1
0
0
0
0
0
0
0
0
1
0
0
0
0
0
0
0
0
0
0
0
0
0
0
0
0
0
0
0
0
0
0
0
0
0
0
0
0
0
0
1
0
0
0
0
0
0
0
0
0
0
0
0
0
0
0
0
1
0
0
0
0
0
0
0
0
1
0
0
0
0
0
0
0
0
0
1
0
0
0
0
0
1
0
0
0
0
0
0
0
0
0
0
0
0
0
0
0
0
0
0
0
1
0
0
0
0
0
0
1
0
0
0
0
0
0
0
0
1
0
0
0
0
0
0
0
0
0
0
0
0
0
0
1
0
0
1
0
0
0
1
0
0
0
0
0
0
0
0
0
0
0
0
0
0
0
0
1
0
0
0
0
0
0
0
0
0
0
1
0
1
0
0
0
0
0
0
1
0
0
0
0
0
0
0
0
0
0
0
0
0
0
0
0
0
0
0
0
0
0
0
0
0
0
0
1
1
0
0
0
0
0
0
1
0
0
0
0
0
0
0
0
0
0
0
0
0
1
0
0
0
0
0
0
0
1
0
0
0
0
0
0
0
0
0
0
0
0
0
0
0
0
0
0
0
0
0
0
0
0
0
0
0
1
0
0
0
0
0
0
0
0
0
0
1
0
0
1
0
0
0
0
0
0
0
0
0
0
0
0
0
0
0
0
0
0
0
0
0
0
0
0
0
0
0
0
0
1
0
0
0
0
0
0
0
1
0
0
0
0
0
0
0
1
0
0
0
0
1
0
0
0
0
0
0
0
0
0
0
0
1
0
1
0
0
0
1
0
				</DataArray>
				<DataArray type="Float64" Name="h" NumberOfComponents="1" Format="ascii">
0.6597135051
0.6596619209
0.6893322904
0.6754522203
0.6872050264
0.6855188902
0.6793364149
0.6625171452
0.6744988487
0.6528081332
0.6706018695
0.6850604076
0.6466099548
0.6659893423
0.6584036164
0.6268605282
0.6811441646
0.6481250757
0.6524258949
0.6707868179
0.6988213054
0.6351158576
0.6573033400
0.6955605926
0.6762858688
0.6238242961
0.6249714786
0.6732620287
0.6744546727
0.6613182080
0.6667106746
0.6655751745
0.6256574067
0.6931731180
0.7231495788
0.6916492770
0.7124202547
0.6437229405
0.6625448868
0.7002823326
0.6818348946
0.6956116508
0.6360371187
0.6636283555
0.6979647254
0.6721641157
0.6540839107
0.7309053742
0.9435949281
0.9227025347
0.7061484141
0.6836269300
0.6732218544
0.7597514514
0.7030858156
0.6182942797
0.6835720803
0.7495620068
0.7619756992
0.7494619377
0.7920994769
0.7734526651
0.9343881705
0.6922274077
0.6602568248
0.6933714642
0.8973487453
0.9115539747
0.7755487846
0.7612298390
0.7622694107
0.7114742453
0.6250592716
0.7926074686
0.7739038346
0.6309888556
0.7501822075
0.8026523017
0.7404886337
0.6529826937
0.8479554933
0.7138279414
0.9961272916
0.8793139922
0.6269246998
0.6685853256
0.8901657262
0.8372498834
0.8389326398
0.9700249761
0.9188220263
0.6503759831
0.8285870414
0.9519329780
0.7129771266
0.6864805328
0.7743482555
0.6412371792
0.6654681465
0.8935213499
0.9818548701
0.8447096210
0.7656610629
0.7424245289
0.6424608055
0.8632322464
0.7001071510
0.9555054722
0.8072902859
0.7288628176
0.9427520576
0.9595810891
0.8813718744
0.9279475166
0.8154053155
1.0282191287
0.7762149361
0.6513343301
0.9753290591
0.8589222529
0.6471360567
0.7918800599
0.6413407449
0.6511289123
0.8999891224
0.9656594582
0.8224758152
0.6488188488
1.0213883663
1.0230750837
0.9810629183
0.7272591386
0.8617355411
1.0542415990
0.6542019138
0.9662023075
0.6196460581
1.0633315906
0.9241313713
0.6111266457
0.6454480069
0.6529736764
1.0090736219
0.6078915303
0.6697845601
0.9540889968
0.6140866503
1.0823228502
0.6496904071
1.1005149514
0.6192006971
1.0770569959
1.0813573513
1.1179586721
0.8889783418
1.0648861012
1.1075882429
0.6406581777
1.1036799514
0.6454824439
0.6038761651
1.0857735396
0.6119093449
0.6427415391
0.6447118405
1.0435480246
0.6049017309
0.6083181006
0.6477314467
1.0775661234
1.1036444180
0.6480560151
1.1116655417
0.6377782466
0.5963448078
1.1229316948
0.5998947468
1.0687399551
1.1220441106
0.6405676197
1.0454082408
0.5927485188
0.6434304683
0.6322636848
0.6469856726
0.6475096582
0.6024353945
1.1151086881
0.6476666284
0.6510841480
0.5882237530
1.1220845824
0.6457924199
0.6001880712
1.1207154254
1.0564344540
0.6319195181
0.5814946365
0.5972166475
1.1024615520
0.6506774144
0.6639834504
0.6488509152
1.1131746077
0.5741158586
0.6329823813
0.5986343555
0.6129336107
0.5930728949
0.5863750568
0.5652639998
0.6478377404
0.6323158513
0.6360588364
0.6054832126
0.5514997183
0.5923228466
0.6271613138
0.5743443804
0.6407665731
0.5916722504
0.9528922033
0.5806811335
0.9149084756
0.6599991194
1.0823765900
0.9939164172
0.8411713164
0.5759965991
0.9701749432
1.1007519838
0.9362222460
0.7565881290
1.0951327448
1.0628388145
0.8870467589
0.5452440854
0.5790636123
0.6437474122
0.5613325609
0.5157812045
0.5973304590
0.6224216624
0.5766355518
0.6052426055
0.5903300786
0.6284254737
0.5597191945
0.5881992402
0.6148600993
0.5702721645
0.5369389690
0.6210706981
0.5276477485
0.4929576392
0.6255284075
0.5832431298
0.5976342420
0.6360598621
0.9252551713
0.5512918428
0.6055289771
0.8027389663
0.8932974011
0.7091664972
1.0402374843
1.0582985403
0.5323251595
1.0836669869
0.9383432602
0.9731964467
0.5693854031
0.9601570023
0.8670594648
0.9016539132
0.5229013918
0.7109165447
0.8596636165
0.9180771394
0.6078476293
0.9790740580
1.0722229016
1.0680563025
1.0299122145
0.9552722182
0.9436292361
0.8071689674
0.5570290338
0.6163689142
0.6093088143
0.5690818322
0.4900422182
0.5791184805
0.5885525779
0.5327612848
0.4598940667
0.5491138527
0.5682116250
0.6000706259
0.6255273596
0.6123403671
0.5788764207
0.5143738268
0.4437695365
0.4723737074
0.5457133166
0.4880071674
0.5596344026
0.6074628648
0.5679951138
0.8355399451
0.7710203789
1.0552867197
0.4903802285
0.9481227977
0.9019713151
0.5144382067
0.9427304256
1.0189407265
0.5350542461
0.8651767657
0.6578481102
0.9135056984
1.0060545848
0.6736866330
0.7651564474
0.8298292319
1.0358594668
0.8738642223
0.9243389356
0.9595601398
0.9900964267
1.0372538788
0.4957704463
0.8914820408
0.5554805121
0.9320280773
0.5454867330
0.9203021626
0.4991043110
0.4188467325
0.5158487082
0.6017834603
0.4418000997
0.5591445715
0.5344830176
0.5691384632
0.5936028654
0.9072196870
0.6088139312
0.4207872204
0.8761501989
0.5575716617
0.5912446660
0.9165599795
0.5196744483
0.7447863918
0.4382136422
0.5329995727
0.8983211885
0.8941049270
0.9179077316
0.6123358081
0.4626421219
0.4386918215
0.5469463279
0.4750335658
0.5605408088
0.8305186261
0.5967196215
0.8851868154
0.9116143799
0.5830256983
0.9729178196
0.8744912616
0.8479608007
0.9680870307
0.5191159973
0.9220453507
0.5488330891
0.4779911201
0.9171097658
1.0159199334
0.4697118444
0.8905486409
0.4911309140
0.6254477734
0.8094147995
0.7584841566
0.4104471474
0.9960885175
0.4897241817
0.8479456812
0.2928475787
0.9510101692
0.8708268575
0.4905270230
0.4739816494
0.4555410994
0.3367601499
0.6588700045
0.9336247570
0.3608071266
0.8975084334
0.3136568248
0.9933313228
0.9075186845
0.5294434742
0.7358922736
0.3853823939
0.8172182666
0.5468219728
0.8762519264
0.6173016529
0.5218151025
0.9116677152
0.8992652405
0.4767446366
0.8855229644
0.6071669854
0.4258027251
0.3547232081
0.5482578394
0.9015342440
0.9184886025
0.8464178808
0.9241782774
0.5842237778
0.9065400129
0.4145029318
0.7394441720
0.9254712823
0.8948523486
0.9154918121
0.8499943995
0.8639437132
0.9401343583
0.8884254664
0.9158177723
0.3562704925
0.6260196614
0.9250065545
0.5354376873
0.9309714593
0.5770104170
0.5031534807
0.7329676213
0.7538308992
0.8627492368
0.9220279252
0.9147893275
0.9345589011
0.5967113364
0.5328312860
0.4225688370
0.3547247753
0.9366572628
0.9275136744
0.8682800584
0.9372550488
0.5729535017
0.4241250790
0.4965114431
0.9732787098
0.4462593867
0.8603490917
0.8137575409
0.6119521115
0.3102741376
0.5278439308
0.9349528618
0.4403547588
0.8955325816
0.4002289232
0.4821905837
0.8038182935
0.9521750873
0.3786273284
0.5654657918
0.5076406801
0.4996668633
0.4088210222
0.5148975430
0.9508200446
0.9671240879
0.9549013315
0.9099807383
0.4904219510
0.8387196401
0.4615527102
0.6364781357
0.5247295438
0.9615174230
0.5533684814
0.4905228819
0.4348456209
0.4705396798
0.9658223083
0.8790807610
0.4785752225
0.9623289122
0.9531189397
0.4010091468
0.4555516886
0.3367667955
0.4150390216
0.7275322654
0.5792813486
0.4432612869
0.7561952127
0.4904210051
0.3970405378
0.9406924775
0.4403528494
0.3048212181
0.5654527514
0.9336155572
0.5509891729
0.5581896039
0.4259437804
0.3970592038
0.7509322270
0.6329378961
0.9203581983
0.4877647526
0.9381204741
0.4405657249
0.8840280765
0.2710430286
0.3807685541
0.9185130760
0.4964987835
0.9063299848
0.5200573513
0.5278265167
0.2983752370
0.5533529553
0.4705315961
0.5792704704
0.2710464346
0.4088371459
0.3226012334
0.4260068798
0.5696250740
0.3744379731
0.4586471200
0.4598027421
0.4002436523
0.3482209465
0.4500576239
0.9363405921
0.4004557003
0.5078436636
0.2590184889
0.5448636486
0.2418991330
0.3866158144
0.4634482484
0.9253256229
0.9280256787
0.3856633954
0.4586673662
0.9275240318
0.5148815272
0.2768867307
0.8884807349
0.4150454523
0.8137581948
0.8983332374
0.9345920564
0.4006938259
0.7556637472
0.9516155851
0.8933939928
0.6072012584
0.5386430443
0.4898325692
0.5143237123
0.9406801849
0.3697002096
0.4297134088
0.8627364427
0.9623263019
0.4043103436
0.6376861249
0.5037943857
0.9158436621
0.8762841364
0.7329914941
0.4410771385
0.9242252091
0.2972416346
0.4202034619
0.2686452124
0.4364504260
0.5328636844
0.3571721162
0.5502774663
0.9604826499
0.3569182685
0.2883591641
0.3843456196
0.9536004867
0.4606608964
0.8463970846
0.3995880739
0.3256690411
0.9629527181
0.8993899000
0.3961038961
0.3517655238
0.5147697872
0.9617967741
0.4286576927
0.5143294559
0.4876152711
0.9002078055
0.5200441029
0.4007047594
0.3807797814
0.4877546560
0.9340084203
0.3269918990
0.5258588535
0.5581772748
0.4022529836
0.5524315982
0.9827845082
0.5448508486
0.4686628642
0.3256711956
0.5316499137
0.4282043367
0.3866225268
0.4259467642
0.3856764201
0.5078312493
0.9781538487
0.9833337106
0.9702791776
0.7562417822
0.5696149357
0.3514814796
0.3016784084
0.3596507075
0.9578573822
0.9600555985
0.2590202015
0.3772222806
0.9630481554
0.6902000643
0.4244189497
0.5255464699
0.4940572976
0.7691848508
0.3794089605
0.3414681705
0.4586419304
0.9733705828
0.4481710246
0.5391244057
0.5062429578
0.9562792445
0.9810951012
0.9828052174
0.9632397964
0.5735982446
0.4011833182
0.5153242775
0.4724110397
0.9752238475
0.9798729765
0.2983790804
0.3872696204
0.3087313837
0.5038255831
0.9817152891
0.5568023948
0.5119575168
0.9960674186
0.9936672894
0.3643293079
0.3731501414
0.9880551732
0.3891534131
0.4116451582
0.6340427819
0.9921951383
0.9925281915
0.9946194271
0.4061467594
0.4162158473
0.6396485663
0.5224996103
0.5065802156
0.9914971092
0.9964568817
0.9747548459
0.9843027691
0.7461663260
0.9995798353
1.0012781182
0.5292488015
0.9833431605
0.9777960518
0.3961039953
1.0031248956
0.4004636255
0.9903569856
0.4444237973
0.4310374322
1.0028650551
0.4286596769
0.9984556284
0.9892080100
0.4586740707
0.9815720262
0.4307835375
0.3772000874
0.9770605107
0.9730429140
0.4769037334
0.6668050883
0.6733958760
0.6733441295
0.6667308577
0.6801390118
0.6850689090
0.6706132435
0.6686707956
0.6817575374
0.6855426244
0.6871737143
0.6817096013
0.6744681213
0.6584303840
0.6793606852
0.6586802989
0.6686534880
0.6801248435
0.6515426733
0.6481277395
0.6754468148
0.6893168501
0.6524992350
0.6613176349
0.6354254539
0.6869055186
0.6624983221
0.6238225781
0.6762864116
0.6528109022
0.6405248793
0.6465757708
0.6955943772
0.6210732105
0.6497487683
0.6586782157
0.6667083308
0.6515230531
0.6931692336
0.6256962107
0.6656868991
0.6193282592
0.7002980932
0.6486469821
0.6811494507
0.6268510297
0.6361385717
0.6626732543
0.6869020001
0.6354200150
0.6819043369
0.6659887406
0.6707966605
0.6955844298
0.6571742504
0.7307140191
0.6350616896
0.7081802407
0.6404864257
0.6988188788
0.6496566012
0.6410547904
0.6882787518
0.7309105395
0.6210554131
0.6979999056
0.7061458966
0.6542345322
0.6731013482
0.6955361563
0.6743549932
0.6836963565
0.6427139252
0.6249074496
0.7146883291
0.6419189993
0.6485377049
0.7049475900
0.7270255724
0.6192882061
0.6733507777
0.7307082067
0.9375498608
0.9161429967
0.6409591486
0.7081710340
0.7092885144
0.6881663662
0.6915962079
0.6604225791
0.6435859494
0.7221765960
0.7231422008
0.9342849999
0.9114018656
0.6986212082
0.7124193465
0.6922956480
0.7048981394
0.7405413144
0.7455829689
0.6634714123
0.7925262688
0.7428403118
0.7115022774
0.6251292245
0.7602550567
0.6256844626
0.6480424630
0.7146770466
0.7904855920
0.7270247218
0.6955429595
0.7501728914
0.7622420539
0.7979562788
0.7738527249
0.6426016510
0.6384426032
0.7755268939
0.7198065595
0.6419204574
0.7612314472
0.7092663979
0.7221589197
0.6810769237
0.6985258230
0.8822572006
0.7254515566
0.9167662923
0.9436442693
0.6835353519
0.9162827883
0.6720219628
0.7139394673
0.8791870572
0.7146202747
0.9376550253
0.9229077762
0.7921264129
0.7734497810
0.6383127607
0.8191510657
0.7980629298
0.7620073064
0.7394588227
0.7428318570
0.6184933130
0.6181548171
0.7405424673
0.7198059931
0.7174794353
0.7030396088
0.7772889229
0.7602599755
0.7904962126
0.6182356601
0.7248060519
0.7761134689
0.6256484252
0.7597352750
0.7455924951
0.7494733198
0.6503825180
0.7495649157
0.6479042086
0.8285283818
0.8823778962
0.7424269434
0.6655848309
0.7145600094
0.6179642253
0.7254315286
0.8446732614
0.8929042919
0.8663229102
0.8418122903
0.6932421218
0.9819411504
0.8974859863
0.7345014047
0.6412969303
0.8131338709
0.6865822785
0.7234873331
0.9169965346
0.8935162899
0.8631121394
0.6809703927
1.0161025076
0.7247122550
0.8072108647
0.9596101199
0.8191955211
0.7761735471
0.8813022259
0.7174448298
0.6310676582
0.9352632443
0.7394579091
0.8027184105
0.6181044273
0.9235286912
0.6185523560
0.9426358195
0.7290168279
0.7773270557
0.8663698496
1.0159052281
0.7513798406
0.8131499297
0.6685853395
0.7919355221
0.8355636333
0.7344980505
0.6394664259
0.7234487174
0.8418565074
0.6269422173
0.6529371400
0.8901779522
0.9959655567
0.8479911060
0.7762973051
0.7404865945
0.8930582140
0.6471214453
0.8373382587
0.6179633374
0.9235242660
0.7273193386
0.9229422668
0.6318666773
0.9656776883
0.8747519451
0.9348343811
0.8390469486
0.7128902050
0.9519200240
0.9975197303
0.9699734357
0.9188533912
0.9603912854
0.7509149256
0.8998386726
0.8223790340
0.9355357848
1.0232270066
0.7655780368
0.9984312045
0.9153464607
0.7513187562
0.6394768715
0.8357165434
0.9416998739
0.6541926915
0.9662342025
0.8615458480
0.6424727863
0.7743959834
0.6697273505
0.9004037238
0.6529645004
0.8962944597
0.6318798386
0.9974054626
0.9280397722
0.9555116873
0.6252217774
0.7509093605
0.9348815531
0.8154443324
0.6496785778
0.9232266568
1.0091718473
0.6492911038
1.0280790106
0.8748502149
0.9541342702
0.9603845703
0.7001826690
0.6524512180
0.6223459348
0.8891198305
1.0884327116
0.9983172120
0.9417887716
0.6261086048
1.0477599683
0.9804044304
0.9277533404
0.8591029479
0.9156818585
1.0770701532
0.6513427379
0.9634589185
0.9752928050
0.6580851351
0.6191921653
1.0814138135
0.8889376782
0.6252310408
0.6492995519
0.6083303702
0.6446995691
0.8964579557
1.0968235486
0.6524621406
0.6471103384
1.0900564211
0.8626125745
0.9006566686
0.6511377245
1.0213146405
0.6039000824
0.6470118887
0.6414607557
0.9810040931
0.6587735867
0.6119079849
0.9937344842
1.0856988028
0.6488290049
1.1037626974
0.9277511796
0.6196597666
1.0542194539
1.0860244051
0.8382237302
0.9803176030
1.0537195966
1.0632244179
1.1117047915
0.6622829569
0.6319146022
0.9241633496
0.6580926337
0.8894201978
0.6261165566
1.0883992031
0.6224557381
0.9634219560
1.0775507932
0.9985389199
1.0476898399
1.1036454705
0.6377684682
1.1004350935
0.6434272363
0.7933026892
0.6470253306
0.6471196041
1.0178046260
1.0993051748
1.1120479074
0.6078569975
1.0822311676
0.6140793519
0.6405618821
1.0899100798
0.6587804779
0.8628171032
0.6404755316
0.6454579279
1.0456639389
0.9936888402
0.5999206569
0.9667727406
0.6111041962
1.0967383368
0.6460343662
0.6476611331
1.0647056872
1.1075449569
0.6319219129
0.7532103280
1.0860028624
0.6557390839
0.6622926925
0.8384928438
0.6469814285
1.0535068964
1.1179196455
0.6406688918
0.9985435305
0.6024329740
0.7067520272
1.1207798351
0.6048726607
0.6460404364
1.0176148558
1.0566932912
0.6404780474
1.1119844847
0.9668068847
1.0610250155
0.6469615315
1.0991891526
0.7934098686
0.6465567164
1.1221435419
1.0338898646
0.6427481552
1.0433043068
0.6001314743
1.0868812160
0.6454863814
0.6638034012
1.1186769465
0.6480603423
0.6488500931
0.5963361801
1.1132376334
0.7534074455
0.6477377455
0.6506771796
0.6557484993
0.5971094961
1.1141783615
1.1219860765
0.6373345921
0.6469649463
0.6465641286
0.6478364178
1.0867161104
1.0607435389
0.6367285513
1.0330442822
0.5927820320
1.0338983742
1.1228693760
0.7068956149
0.6485808150
0.6487591614
1.0685334303
0.6323154257
0.5929448465
0.5883120279
1.1008313895
1.1186073889
0.6510847753
1.1141008943
1.1047241839
1.1095854473
0.6324155522
0.6475105624
1.1150544554
0.5915444398
0.6284275356
0.5903529902
0.6261647032
0.6052539787
0.5816165518
0.6487597873
0.5366348413
0.6442076891
0.5766305836
0.6203932733
0.6373399623
0.5451432349
0.6457934772
0.6452542142
1.0327792214
0.6319236263
0.6391023435
0.5976521408
0.6134092533
0.5275728434
0.5832602400
0.6210740612
0.5596339898
0.6485821086
0.6437458013
0.6367306739
1.0895992117
0.5161144097
0.5742316142
1.1046554263
0.9435795556
0.5693425671
1.1095014482
0.9012973038
0.6077467123
1.0681127539
0.9791918853
1.0278653189
0.8068255202
0.5322882196
0.9601929943
1.1023675492
0.9250277845
0.7089681750
1.0837442197
1.0064136644
1.0404821701
0.8666296770
0.5653718167
0.5691065522
0.6063419357
0.6407672182
0.5490917137
0.4899961314
0.6203912404
0.5367197065
0.6261671254
0.6377680200
0.4801528190
0.5885771669
0.6163743192
0.6442086803
0.5863624979
0.6129302765
0.5986138778
0.6329814912
0.5744100903
0.5789049554
0.6074727766
0.6452551047
0.5596420329
0.5143050644
0.6271601194
0.5516118360
0.4723521190
0.5981740706
0.6301429812
0.5922990975
0.6134038573
0.6054735517
0.6391029036
0.9363766188
0.5349978765
0.4726634241
0.5554833120
0.7649649521
0.8735031277
0.7568399235
1.0061874232
1.0626691095
1.0361048292
0.5761130715
1.0950416017
0.9978280055
0.9241952763
0.9596726579
0.5806992547
1.0894910728
0.9701140045
0.8873846994
0.9151992436
0.4903731355
0.6578114330
0.8351910373
0.9016476551
0.6601826006
0.9937547417
1.0276096717
1.0554620323
0.5161659962
1.0823131948
1.0062564830
0.9427463014
0.9792934696
0.9528691483
0.8415230144
0.5455085554
0.5898155631
0.6224177864
0.6377678887
0.6017932932
0.5790354940
0.5158641437
0.4504943222
0.5691667517
0.4801733438
0.5973129537
0.5158314045
0.4417806959
0.5613369278
0.6063306791
0.5576002688
0.5912604187
0.6301424499
0.6184218141
0.5881747719
0.5370199846
0.4386680613
0.5804115689
0.4930049198
0.5981569407
0.5330045263
0.4626158324
0.5702521635
0.6148531596
0.5294396201
0.8600676619
0.7358700961
1.0720892737
0.5229294482
0.9336754875
0.9183023988
0.4910999746
0.9551997040
0.9791156024
0.9658071246
0.9934239324
0.4555564353
0.5513354815
0.8477534452
0.7110819241
0.8973139090
1.0296600326
0.6254724930
0.8030533480
0.8092877423
1.0582860218
0.4726854579
0.9493343807
0.8936494063
0.9383688942
0.9730470780
0.9681571280
1.0159912895
0.4779552008
0.8742861566
0.6056020178
0.9170437853
0.9976194507
0.9116419055
0.7394126883
0.4434049082
0.8855136403
0.5570015424
0.5897971533
0.9153077849
0.9137071681
0.4767438988
0.6412165310
0.4144803634
0.5327696250
0.8910934802
0.9014709963
0.9186190432
0.6093009697
0.4599280757
0.4505232282
0.5482816772
0.5218327168
0.5790941209
0.5467999755
0.4886812154
0.8639481810
0.5842363328
0.8574361227
0.9047399230
0.5709871503
0.9090014037
0.6431326118
0.4240983199
0.8754997312
0.5681830980
0.6000579197
0.9185917208
0.9173917582
0.5031619919
0.7830215898
0.4225551701
0.5456972224
0.9008050249
0.8947584839
0.9203121258
0.6184193900
0.4880553753
0.4437896948
0.5607920697
0.5354603181
0.5803885307
0.4992186081
0.5551448902
0.8383279269
0.6041653545
0.8816503982
0.9098983739
0.5729708380
0.3911562600
0.9508156004
0.4516041901
0.8917371026
0.2923546604
0.9353380293
0.8386832436
0.9899723925
0.5076475170
0.4972751023
0.4635837925
0.9099508312
0.4615413072
0.3411100480
0.5246940883
0.9492164819
0.4957850975
0.3517885341
0.9320100843
0.3114492104
1.0371209957
0.4462528708
0.8789699093
0.5144753086
0.6737147645
0.8300602936
0.3935215989
0.7275462044
0.4009987683
0.9732918906
0.4821489836
0.8654283674
0.2883548545
0.9349504858
0.8603026457
0.9657038771
0.5169507643
0.5062572101
0.4639576004
0.9224949779
0.4423498794
0.3335607233
0.6119392407
0.9480010396
0.4555898022
0.3569104320
0.9136391202
0.3102687052
1.0188025215
0.8954396322
0.5679996475
0.7711474899
0.3786183481
0.8038083800
0.5495305475
0.9337528698
0.8809992753
0.9151536621
0.5509846897
0.6412379897
0.7509214693
0.8947812936
0.5344603184
0.9145075173
0.9277746465
0.9055646724
0.9144654717
0.3887936768
0.4991048036
0.8855585580
0.6497146978
0.4886829215
0.7717860185
0.4063536615
0.6517643267
0.5591219336
0.9028840539
0.9186637186
0.8489859923
0.9253222538
0.8855315984
0.9185158342
0.9367955183
0.5935917161
0.4946242577
0.9047519103
0.4188693300
0.4750383571
0.4258023205
0.9363225519
0.9280043162
0.7718062737
0.9063339326
0.9277934750
0.8910904198
0.9137071421
0.9370955495
0.5709680670
0.4434408458
0.8574456864
0.8626151973
0.9184435660
0.6088464457
0.9359997740
0.8940374167
0.9065339072
0.9247932794
0.4474887525
0.5605603689
0.6446988269
0.9214490437
0.5469221468
0.9153616005
0.9360083087
0.9080386290
0.5335972005
0.5196601582
0.8941230171
0.7630639053
0.3433328347
0.3433321764
0.7937967165
0.5607702419
0.9071250386
0.9166025075
0.8662889606
0.9185393145
0.9094804511
0.9535815536
0.6041602431
0.5439498703
0.8499806061
0.8983334192
0.4382332927
0.4063531920
0.9339877892
0.9242996290
0.8305359816
0.8765920270
0.9254667680
0.8816437045
0.9099112950
0.9406563403
0.5830104235
0.4208161899
0.7830453753
0.8761420713
0.5118567237
0.9960628275
0.9617971043
0.9536015242
0.9224638355
0.4697260488
0.4996630041
0.8709467528
0.4423612135
0.7556691460
0.8230546066
0.6588705144
0.3136623701
0.9604825347
0.5513025486
0.4972706742
0.5385914667
0.9509946195
0.4198302325
0.4607063136
0.9630542105
0.9075843463
0.4805588591
0.9505489107
0.9543821381
0.3911670280
0.4739885135
0.3310038404
0.3310103965
0.4047118564
0.4897531068
0.8172798831
0.9484289620
0.3853915425
0.3159537219
0.5769808075
0.5191073176
0.4898158931
0.6622529053
0.4898189655
0.4709376218
0.4083139387
0.4838446325
0.9496081775
0.5264168710
0.9728849685
0.9629587913
0.9504075492
0.9220186402
0.4995277887
0.8480535090
0.4639665929
0.6584454726
0.5488408960
0.3159591868
0.9578537823
0.5642426601
0.5062503861
0.5406962016
0.9353035046
0.4201919741
0.4908117105
0.9620887646
0.8906932211
0.4898186491
0.9576641916
0.9485420787
0.4104577053
0.4635902265
0.3335673496
0.4104259108
0.4276665844
0.4516357688
0.7585030267
0.9491205418
0.3935303552
0.5877827016
0.5169423705
0.4865568603
0.4376699418
0.7994552315
0.5081487109
0.4805543246
0.3980015214
0.9378366498
0.2937607624
0.5512862530
0.4607019573
0.3887991983
0.5769680809
0.9277639930
0.3562747080
0.4376885638
0.3333430572
0.5723522114
0.4271985726
0.5455999581
0.3829560327
0.9254521113
0.4167944894
0.7892814621
0.4698406412
0.3980212061
0.3404274285
0.7892941789
0.8383351792
0.6517685105
0.4284517841
0.9028547071
0.9186516921
0.3048166816
0.4992343865
0.9254810807
0.3865216968
0.4700785601
0.9337534874
0.8947889679
0.2565270877
0.4564625590
0.5495048851
0.5321053324
0.8947785174
0.8851882778
0.2878010193
0.2548568074
0.9154801505
0.4114726051
0.4568918497
0.9203639836
0.9412404515
0.5551550018
0.9142401438
0.9396328763
0.3726921084
0.4583024153
0.9142417545
0.9220477479
0.5118393205
0.2866060276
0.9020245471
0.5104670503
0.5385738017
0.9116242051
0.3037686691
0.5642279082
0.4907988215
0.2549794883
0.5877746560
0.9214366590
0.2878044228
0.8840333209
0.4083331161
0.3268603367
0.6260296045
0.4121881599
0.5599514425
0.3731432935
0.4420471265
0.4441958340
0.4047272280
0.3504491370
0.6172820163
0.8682878257
0.5770132210
0.4310302304
0.9179480826
0.9381188504
0.9278205397
0.3943474067
0.4942063960
0.9309730423
0.2655639677
0.4254637239
0.5337742596
0.7937988257
0.9396207520
0.2549767892
0.2522812427
0.3748812268
0.4444169150
0.9360004716
0.9372684673
0.3815721544
0.4413594330
0.9220295640
0.9371008532
0.5263984422
0.2829859989
0.9147757016
0.5218651053
0.5406790493
0.8941098628
0.4276729114