<VTKFile type="UnstructuredGrid" version="0.1">
	<UnstructuredGrid>
		<Piece NumberOfPoints="1862" NumberOfCells="3498">
			<CellData>
				<DataArray type="Int32" Name="type" NumberOfComponents="1" Format="ascii">
0
0
0
0
0
0
0
0
0
0
0
0
0
0
0
0
1
0
0
1
0
0
0
0
0
0
0
0
0
0
0
0
0
1
0
0
0
0
0
0
0
0
0
0
0
0
0
0
0
0
1
0
0
0
0
0
0
0
0
0
0
1
0
0
0
0
0
0
0
0
0
0
0
0
0
0
0
0
0
0
0
0
0
0
0
0
0
0
0
0
0
0
0
0
0
0
0
0
0
0
0
0
0
0
0
0
0
0
0
0
0
0
0
0
0
0
0
0
0
0
0
0
0
1
0
0
0
0
0
0
0
0
0
0
0
0
0
0
0
0
0
0
0
0
0
0
0
0
0
0
0
1
0
1
1
0
0
0
0
0
0
0
0
0
0
0
0
0
1
0
1
0
0
0
0
1
0
0
0
0
0
0
0
0
1
1
0
0
0
0
0
1
0
0
0
0
0
0
0
0
1
0
0
0
0
0
0
0
0
0
0
0
0
0
0
0
0
0
0
0
0
0
0
0
0
0
0
0
0
0
0
0
0
1
0
0
0
0
0
0
0
0
0
0
0
0
0
0
0
0
0
0
0
0
0
0
0
0
0
0
0
0
0
0
0
0
0
0
0
0
0
0
0
0
0
0
0
0
0
0
0
1
0
0
0
0
0
0
0
0
0
0
0
0
0
0
0
0
0
0
0
0
0
0
0
0
0
0
0
0
0
0
0
0
0
0
0
0
0
0
0
0
0
0
0
0
0
0
0
0
0
0
1
0
0
0
0
0
0
0
0
0
0
0
0
0
0
0
0
0
0
0
0
0
0
0
0
0
0
0
0
0
0
0
0
0
0
0
0
0
0
0
0
0
0
0
0
0
0
0
0
0
0
0
0
0
0
0
0
0
1
0
0
0
0
0
0
0
0
0
0
0
0
0
0
0
0
0
0
0
0
0
0
0
0
0
0
0
0
0
0
0
0
0
0
0
0
0
0
0
0
0
0
0
0
0
0
0
0
0
0
0
0
0
0
0
0
0
0
0
0
0
0
0
0
0
0
0
0
0
0
0
0
0
0
0
0
0
0
0
0
0
0
0
0
0
0
0
0
0
0
0
0
0
0
0
0
0
0
0
0
0
0
0
0
0
0
0
0
0
0
0
0
0
0
0
0
0
0
0
0
0
0
0
0
0
0
0
0
0
0
0
0
1
0
0
0
0
0
0
0
0
0
0
0
0
0
0
0
0
0
0
0
1
0
0
0
0
0
0
0
0
0
0
0
0
0
0
0
0
0
0
0
0
0
0
0
0
0
0
0
0
0
0
0
0
0
0
0
0
0
0
0
0
0
0
0
0
0
0
0
0
0
0
0
0
0
1
0
0
0
0
0
0
0
0
0
0
0
0
0
0
0
0
0
0
0
0
0
0
0
1
0
0
0
0
0
0
0
0
0
0
0
0
0
0
0
0
0
0
0
1
0
0
0
1
0
0
0
0
0
0
0
0
0
0
0
0
0
0
0
0
0
0
0
0
0
0
0
0
0
1
0
0
0
0
0
0
0
1
0
0
0
0
0
0
0
0
0
0
0
0
0
0
0
0
0
0
0
0
0
0
0
0
0
0
1
0
0
0
0
0
0
0
1
0
0
0
0
0
0
1
0
0
0
0
0
0
0
0
0
0
0
0
0
0
0
0
0
0
0
0
0
0
0
0
0
0
0
0
0
0
0
0
0
0
0
0
0
0
1
0
0
0
0
0
1
0
0
0
0
0
0
0
1
0
0
0
0
0
0
0
0
0
0
0
0
0
1
0
0
0
0
0
0
0
0
0
0
0
0
0
0
0
0
0
0
0
0
0
0
0
0
0
0
0
0
0
0
0
0
0
0
0
0
0
0
0
0
0
0
0
0
0
0
0
0
0
0
0
0
0
1
0
0
0
0
0
0
0
0
0
0
0
0
0
0
0
0
0
0
0
1
0
0
0
0
0
0
0
0
0
1
0
0
0
0
0
0
0
0
0
0
0
0
0
0
0
0
0
0
0
0
0
0
0
0
0
0
0
0
0
1
0
1
0
0
0
0
0
0
0
0
0
0
0
0
0
0
0
0
0
0
0
0
0
0
0
0
0
0
0
1
0
0
0
1
0
0
0
0
0
0
0
0
0
0
0
0
0
0
0
0
0
0
0
0
0
0
0
0
0
0
0
0
1
0
0
0
0
0
0
0
0
0
0
0
0
0
0
0
0
0
0
0
0
0
0
0
0
0
1
0
0
0
0
0
0
0
0
0
0
0
0
0
0
0
0
0
0
0
0
0
0
0
1
0
0
0
0
0
0
1
0
0
0
0
0
0
0
0
0
0
0
1
0
0
0
0
0
0
0
0
0
0
0
0
0
0
0
0
0
0
0
0
1
0
0
0
0
0
0
0
0
0
0
0
1
0
0
0
0
0
0
0
0
0
0
0
0
0
0
0
0
0
0
0
0
0
1
0
0
0
0
0
0
0
0
0
1
1
0
1
0
1
0
0
0
0
0
0
0
0
0
0
0
1
0
0
0
0
0
1
1
0
0
0
0
0
0
1
0
0
0
0
0
1
1
1
0
0
0
0
0
0
0
0
0
0
0
0
1
1
0
0
1
0
0
0
0
0
1
0
0
0
1
0
1
0
0
0
0
0
0
0
1
0
0
0
0
0
0
0
1
0
0
1
0
0
0
0
0
0
0
0
0
0
0
0
0
0
0
1
0
0
0
0
0
0
0
0
0
0
0
0
0
0
0
0
0
0
0
0
0
0
0
0
0
0
0
0
0
0
0
0
0
0
0
0
1
0
0
0
0
0
0
1
0
0
0
1
0
0
0
0
0
0
0
0
0
0
0
1
0
0
0
0
0
0
0
0
0
0
0
0
0
0
0
0
0
0
0
0
0
0
0
0
0
0
0
0
0
0
0
0
0
0
0
0
0
0
0
0
1
1
0
0
0
0
0
0
0
0
0
0
0
0
0
1
0
0
0
0
0
0
0
0
0
0
0
0
0
0
0
0
0
0
0
0
0
0
0
0
0
0
0
0
0
0
0
0
0
0
0
0
0
0
0
0
0
0
0
0
0
0
0
0
0
0
0
0
0
0
0
0
0
0
0
0
0
0
0
0
0
0
0
0
0
0
0
0
1
1
0
0
0
0
0
0
0
0
1
0
0
0
0
0
0
0
0
0
0
0
0
0
0
0
0
0
0
0
0
0
0
0
1
0
0
0
0
0
0
0
0
0
0
0
0
0
0
0
0
1
0
0
0
0
0
0
0
0
0
0
0
0
0
0
0
0
0
0
0
0
0
0
0
0
0
0
0
0
0
0
0
0
0
0
0
0
0
0
0
0
0
0
0
0
0
0
0
0
0
0
0
0
0
0
0
0
0
0
0
0
0
0
0
0
0
0
0
0
0
0
0
0
0
0
0
0
0
0
0
0
0
0
0
0
0
0
0
0
0
0
1
1
0
0
0
0
0
1
0
0
0
0
0
0
0
0
0
0
0
0
1
0
0
0
0
0
0
0
0
0
0
0
0
0
0
0
0
0
0
0
0
0
0
0
0
0
0
0
0
0
0
0
0
0
0
0
0
0
0
0
0
0
0
0
0
0
0
0
0
0
0
0
0
0
1
0
1
0
0
0
0
0
0
0
0
0
0
0
0
0
0
0
0
0
0
1
0
0
0
0
0
0
0
0
0
0
0
0
0
0
0
0
0
0
0
0
0
0
0
0
0
0
0
0
0
0
0
0
0
0
0
0
0
0
0
0
0
0
0
0
0
0
0
0
0
0
0
0
0
0
0
0
0
0
0
0
0
0
0
0
0
0
0
0
0
0
1
0
0
0
0
0
0
0
0
0
0
1
0
0
0
0
0
0
0
0
0
0
0
0
0
0
0
0
0
0
0
0
0
0
0
0
0
0
0
0
0
0
0
0
0
0
0
0
0
1
0
0
0
0
0
0
0
0
0
0
0
0
0
0
0
0
0
0
0
0
0
0
0
0
0
0
0
0
0
0
0
0
0
0
0
0
0
0
0
0
0
0
0
0
0
0
0
0
0
0
0
0
0
0
0
0
0
0
0
0
0
0
0
0
0
0
0
0
0
0
0
0
0
0
0
0
0
0
0
0
0
1
0
0
0
0
0
0
0
0
0
0
0
0
0
0
0
0
0
0
0
0
0
0
0
0
0
0
0
0
0
0
0
0
0
0
0
0
0
0
0
0
0
0
0
0
0
0
0
0
0
0
0
0
0
0
0
0
0
0
0
0
0
0
0
0
0
0
0
0
0
0
0
0
0
0
0
0
0
0
0
0
0
0
0
0
0
0
0
0
0
0
0
0
0
0
0
0
0
0
0
0
0
0
0
0
0
0
0
0
0
0
0
0
0
0
0
0
0
0
0
0
0
0
0
1
0
0
0
0
0
0
0
0
0
0
0
0
0
0
0
0
0
0
0
0
0
0
0
0
0
0
0
0
0
0
0
0
0
0
0
0
0
0
0
0
0
0
0
0
0
0
0
0
0
0
0
0
0
0
0
0
0
0
0
0
0
0
0
0
0
0
0
0
0
0
0
0
0
0
0
0
0
0
0
0
0
1
0
0
0
0
0
0
0
1
0
0
0
0
0
0
0
0
0
0
0
0
0
0
0
0
0
0
0
0
0
0
0
0
0
0
0
0
0
0
0
0
0
0
0
0
0
1
0
0
0
0
0
0
0
0
0
0
0
0
0
0
0
0
0
0
0
0
0
1
0
0
0
0
0
0
0
0
0
0
0
0
1
1
0
0
0
0
0
0
0
0
0
0
0
0
0
0
0
1
1
0
1
0
0
0
0
0
0
0
0
0
1
0
0
0
0
0
0
1
0
0
0
0
0
0
0
0
0
0
1
0
0
0
0
1
0
1
0
0
0
0
0
0
0
1
0
0
0
1
0
0
0
1
0
1
1
0
0
1
1
0
0
0
1
0
0
0
1
0
0
0
0
0
0
0
0
0
1
0
0
0
0
0
0
1
0
0
0
0
0
0
0
0
0
0
0
0
0
0
0
0
0
0
0
0
0
0
0
0
0
0
0
1
0
0
1
0
0
0
0
0
0
0
0
0
0
0
0
0
0
0
0
0
0
1
0
0
1
0
0
0
0
0
0
0
0
0
0
0
1
0
0
1
0
0
0
0
0
0
0
0
0
0
0
1
1
0
0
0
0
0
0
0
0
0
0
0
0
1
0
0
0
0
0
0
0
0
0
0
0
0
0
0
0
0
0
1
0
0
0
0
0
0
0
0
0
0
0
0
0
0
0
0
0
1
0
0
0
0
0
0
0
0
0
0
0
0
0
0
0
0
0
0
0
0
0
0
0
0
0
0
0
0
0
0
0
0
0
0
0
0
0
0
0
0
1
0
0
0
0
0
0
0
0
0
0
0
0
0
0
0
0
0
0
0
0
0
0
0
0
0
0
0
0
0
0
0
0
0
0
0
0
0
0
0
0
0
0
0
0
0
1
0
0
0
0
0
0
0
0
0
0
0
0
0
0
0
0
0
0
0
0
0
0
0
0
0
0
0
0
0
0
0
0
0
0
0
0
0
0
0
0
0
0
0
0
0
0
0
1
0
0
0
0
0
0
0
0
0
0
1
0
0
0
0
0
0
0
0
0
0
0
0
0
0
0
1
0
0
1
0
0
0
0
0
0
0
0
0
0
0
0
0
0
0
0
0
0
0
0
0
0
0
1
0
0
0
0
0
0
0
0
0
0
0
0
0
0
0
0
0
0
0
0
0
0
0
0
0
0
0
0
0
0
0
0
0
0
0
1
0
0
0
0
0
0
0
0
0
0
0
0
0
0
0
0
0
0
0
0
0
0
0
0
0
0
0
0
0
0
0
0
0
0
0
0
0
0
0
0
0
0
0
0
0
0
0
0
0
0
0
0
0
0
0
0
0
0
0
0
0
0
0
0
0
0
0
0
0
0
0
0
0
0
0
0
1
0
0
0
0
0
0
0
0
0
0
0
0
0
0
0
0
0
0
0
0
0
0
0
0
0
0
0
0
0
0
0
0
0
0
0
0
0
0
0
1
0
0
0
0
0
0
0
0
0
0
0
0
1
1
0
0
0
0
0
0
0
0
0
0
0
0
0
0
0
0
0
0
0
0
0
0
0
0
0
0
0
0
0
0
0
0
0
0
0
0
0
0
0
0
0
0
0
0
0
0
0
0
0
0
0
0
0
0
0
0
0
0
0
0
0
0
0
0
0
0
0
0
0
0
0
0
0
0
0
0
0
0
0
0
0
0
0
0
0
0
0
0
0
0
0
0
0
0
0
0
0
0
0
0
0
1
0
1
0
0
0
0
0
0
0
1
1
1
1
0
0
0
0
0
0
0
0
0
0
0
0
0
0
0
0
0
0
0
0
0
0
0
0
0
0
0
0
1
1
0
0
0
0
0
0
0
0
0
0
0
0
0
0
0
0
0
0
1
0
0
0
0
0
0
0
1
1
0
1
1
0
0
1
0
0
0
0
0
0
0
1
0
1
0
0
0
0
0
0
0
0
0
0
0
0
0
0
0
0
0
0
0
0
0
0
0
0
0
0
0
1
1
0
0
0
1
1
0
0
0
0
1
0
0
1
0
1
0
0
0
0
0
1
0
0
0
1
0
0
0
0
0
0
0
0
0
0
0
0
0
0
0
0
0
0
0
0
0
0
0
0
0
0
0
1
0
0
0
0
0
0
1
0
0
0
0
0
0
0
0
0
0
0
0
0
0
0
0
0
0
0
0
0
0
0
0
0
0
0
0
0
1
0
1
0
0
0
0
0
0
0
1
0
0
0
0
0
0
0
0
0
0
0
1
0
0
0
0
0
0
0
0
0
1
0
0
0
0
0
0
0
1
0
0
0
0
0
0
0
1
0
0
0
0
0
0
0
0
0
0
0
0
0
0
0
0
0
0
0
1
0
1
0
0
0
0
0
1
0
0
0
0
0
0
0
0
0
0
0
0
0
0
0
0
0
0
0
0
0
0
0
0
0
1
0
1
0
0
0
0
0
0
0
0
0
1
0
0
0
0
0
1
0
0
0
0
0
0
0
0
0
0
0
0
0
0
0
1
0
0
0
0
0
0
0
0
1
0
0
0
0
0
0
0
0
0
0
0
0
0
0
0
0
0
0
0
0
0
0
0
0
0
0
0
0
0
0
1
0
0
0
0
0
0
0
0
0
0
0
0
0
0
0
0
1
0
0
0
0
0
0
0
0
1
0
0
0
0
0
0
0
0
0
1
0
0
0
0
0
1
0
0
0
0
0
0
0
0
0
0
0
0
0
0
0
0
0
0
0
1
0
0
0
0
0
0
1
0
0
0
0
0
0
0
0
1
0
0
0
0
0
0
0
0
0
0
0
0
0
0
1
0
0
1
0
0
0
1
0
0
0
0
0
0
0
0
0
0
0
0
0
0
0
0
1
0
0
0
0
0
0
0
0
0
0
1
0
1
0
0
0
0
0
0
1
0
0
0
0
0
0
0
0
0
0
0
0
0
0
0
0
0
0
0
0
0
0
0
0
0
0
0
1
1
0
0
0
0
0
0
1
0
0
0
0
0
0
0
0
0
0
0
0
0
1
0
0
0
0
0
0
0
1
0
0
0
0
0
0
0
0
0
0
0
0
0
0
0
0
0
0
0
0
0
0
0
0
0
0
0
1
0
0
0
0
0
0
0
0
0
0
1
0
0
1
0
0
0
0
0
0
0
0
0
0
0
0
0
0
0
0
0
0
0
0
0
0
0
0
0
0
0
0
0
1
0
0
0
0
0
0
0
1
0
0
0
0
0
0
0
1
0
0
0
0
1
0
0
0
0
0
0
0
0
0
0
0
1
0
1
0
0
0
1
0
				</DataArray>
				<DataArray type="Float64" Name="h" NumberOfComponents="1" Format="ascii">
0.6373619268
0.6373130784
0.6644775100
0.6511895000
0.6631154621
0.6610253615
0.6549639105
0.6397671291
0.6506894111
0.6313975442
0.6468513436
0.6601103357
0.6254040180
0.6427577892
0.6358640639
0.6085175918
0.6561902621
0.6271091069
0.6304949558
0.6467032355
0.6734892276
0.6150966779
0.6351218220
0.6718719940
0.6517166208
0.6064761839
0.6054987413
0.6707218560
0.6519576777
0.6386204489
0.6430511700
0.6428936807
0.6067435366
0.6678745524
0.7081491606
0.6701111479
0.6885545540
0.6228108418
0.6602417915
0.6761473020
0.6589983022
0.6941541348
0.6155993106
0.6430739411
0.6761066829
0.6601541175
0.6327515680
0.7255470560
0.9510691337
0.9186780533
0.6814686207
0.6657650662
0.6524478145
0.8189605875
0.6911187706
0.5993978890
0.6716436918
0.7775625483
0.8228981579
0.8035445688
0.8874290186
0.8475219168
0.9483556218
0.6741740760
0.6427058815
0.7282240106
0.8948507634
0.9135174563
0.8531097195
0.8063800822
0.8234674022
0.6995374133
0.6057278373
0.8491692258
0.8369928984
0.6456534143
0.7875099000
0.8881863372
0.7459897110
0.6621368489
0.9579981991
0.7654751121
1.0321464334
0.8873400681
0.6194796556
0.7126552268
0.9842277419
0.8629294708
0.8978093905
0.9927584209
0.9778567288
0.6723762978
0.9194397271
0.9567184724
0.7734531795
0.7357253536
0.8303791875
0.6377714738
0.6793566413
0.9766673232
1.0152650914
0.9589974980
0.8221211441
0.7420510414
0.6226097452
0.8753970524
0.7718518376
0.9733597047
0.8795570739
0.7880247103
0.9396754577
0.9747077112
0.9491541218
0.9641252408
0.8573719492
1.0591542046
0.8314338387
0.6303855163
1.0198801099
0.8864433399
0.6268959288
0.8405706644
0.6971804825
0.6301617073
0.9364559810
0.9966419217
0.8644560288
0.6285781817
1.0574663735
1.0556001054
1.0330298827
0.7928427996
0.8964312604
1.0818237999
0.6325898064
1.0153318238
0.6031324859
1.0813851563
1.0143083096
0.5942168081
0.6260588396
0.6314408282
1.0492686592
0.5904296608
0.7316398287
1.0173426254
0.5975665609
1.0903925395
0.6291164714
1.1036438465
0.6028636855
1.0927856564
1.0927819468
1.1156933668
0.9952157124
1.0801025542
1.1105537249
0.6215340447
1.1061210987
0.6262903792
0.5876877378
1.0936265626
0.5963106578
0.6236360006
0.6251561216
1.0700322928
0.5869899176
0.5926171177
0.6275745370
1.0883159452
1.1079074458
0.6283437035
1.1121346592
0.6193242234
0.5794636621
1.1199089774
0.5831129412
1.0823237710
1.1190317184
0.6217873118
1.0706041955
0.5776442022
0.6244217565
0.7128359541
0.6271927266
0.6282019407
0.5850829388
1.1137703580
0.6278244781
0.6317292140
0.5801123068
1.1187210714
0.6266058938
0.5864032517
1.1185267283
1.0775862203
0.6143036191
0.5922492501
0.5951476960
1.1041393482
0.6313347231
0.7585118949
0.6295369780
1.1121667915
0.6206169271
0.6151155756
0.5840674824
0.5974354360
0.6191257699
0.5711394470
0.5596709745
0.6285526715
0.6147765645
0.6180507791
0.5906261402
0.5635900339
0.5775653028
0.6100438257
0.5610509407
0.6220674474
0.6642955123
0.9583255453
0.5653148270
0.9129489896
0.7685326870
1.0908826488
1.0293673902
0.8668575337
0.6682652507
0.9918700786
1.1027948363
0.9330608750
0.8285038926
1.0991503559
1.0782203328
0.8920979765
0.5505955981
0.5672752149
0.6249574259
0.5497179434
0.5283207937
0.5840739855
0.6057709772
0.5625836622
0.5908034729
0.5768132282
0.6112762839
0.5520794319
0.5758840299
0.5992171717
0.5584325350
0.5347155561
0.6048179844
0.5540580206
0.5220540449
0.6086873750
0.5694560570
0.5838800162
0.6180547025
0.9255061802
0.5417062024
0.7238728733
0.8512630168
0.9070958775
0.8048431166
1.0673330994
1.0757261882
0.6098062638
1.0921928586
0.9468521245
1.0045330985
0.5564935196
0.9738479000
0.8830725379
0.9059202433
0.6085500854
0.8059723928
0.8829825082
0.9270360816
0.7235758079
1.0075507028
1.0857654684
1.0814185763
1.0621520170
0.9726951669
0.9463011594
0.8520422380
0.5489279748
0.6006788743
0.5943493130
0.5586080412
0.5140223182
0.5689879217
0.5766684786
0.5280860343
0.4912033610
0.5402278878
0.5591950399
0.5865790108
0.6086888125
0.5972211200
0.5678902850
0.5234249258
0.4746642434
0.5056553791
0.5383764146
0.5065447831
0.5490581990
0.5928971797
0.6753566084
0.8674931369
0.8273120651
1.0766531323
0.5442214223
0.9795510238
0.9179300392
0.5179548825
0.9583205159
1.0554594062
0.5317485949
0.8920313572
0.7741956701
0.9344501176
1.0460877038
0.7728237183
0.8304005038
0.8631035756
1.0639764016
0.8958336994
0.9372025372
0.9849287391
1.0393558691
1.0680447659
0.5436104471
0.9149500494
0.6682715626
0.9549610191
0.5394399566
0.9519284136
0.5085500386
0.4515685602
0.5180861554
0.5881708949
0.4735201844
0.5527788779
0.5310590890
0.5606715869
0.5814341917
0.9113559272
0.6976499834
0.4343853890
0.8763566953
0.5502961777
0.5793836842
0.9157989400
0.5199249106
0.8392255803
0.4751276172
0.5288332770
0.8962381591
0.8959609896
0.9226767170
0.5972183313
0.4912308083
0.4591011750
0.5421529558
0.3984533722
0.5553515399
0.8521519145
0.5841251262
0.8875403731
0.9054516074
0.5728955886
1.0305153100
0.9013196371
0.8711141674
1.0189518431
0.5284124233
0.9532066443
0.6329138236
0.4913733251
0.9414951922
1.0556354427
0.4946993598
0.9158432890
0.5063396682
0.7360406813
0.8437833934
0.8082575894
0.4413528986
1.0434682144
0.4969196774
0.8754113840
0.2915686783
1.0063967976
0.8955052805
0.5125159621
0.5091810147
0.4979476760
0.3413591659
0.7489979307
0.9623701033
0.3704123660
0.9224842924
0.3150513226
1.0426098098
0.9337986578
0.6119505234
0.8061842279
0.4035428026
0.8425776942
0.5273179185
0.8875394705
0.6912797952
0.5215670741
0.9208649950
0.9150391273
0.4977307516
0.8868267956
0.7037524579
0.3325351606
0.3233952353
0.5441984719
0.9034472135
0.9159290390
0.8524689867
0.9694801004
0.5736940842
0.9023149863
0.4375947177
0.8180247953
0.9151430275
0.8929802998
0.9078242030
0.8781062416
0.8652067890
0.9301403086
0.9017277754
0.9467271316
0.2812731355
0.6859161801
0.9341010041
0.5330189202
0.9277059180
0.4995794281
0.5107536131
0.7980977203
0.8685402678
0.8708074865
0.9161960155
0.9140339327
0.9890873520
0.5841176317
0.5425717491
0.4587580981
0.3233979993
0.9170795284
0.9149561506
0.9038233254
0.9196764064
0.5647014133
0.4255640010
0.5086681708
1.0264072120
0.4802427016
0.8805363300
0.8326258509
0.7124725721
0.3115867090
0.5292697845
0.9835437215
0.4781095377
0.9201666208
0.4289452078
0.4653158928
0.8291775203
0.9308344850
0.3924685209
0.5590954866
0.5187514495
0.5146320908
0.3944965813
0.5185001586
1.0096947046
0.9592658544
0.9405121727
0.9376321687
0.5128441625
0.8565017362
0.5020529987
0.6730242324
0.5691897694
0.9377928642
0.5498706876
0.5125120798
0.4754369261
0.4962295452
0.9484577315
0.9019515607
0.5081591309
0.9665748637
0.9492962249
0.4223402403
0.4979487873
0.3413638531
0.4552085934
0.7922021478
0.5701301336
0.4029232594
0.8746882446
0.5128424598
0.4057765746
0.9518689780
0.4781101598
0.2544015327
0.5590829613
0.9347927494
0.4460272426
0.5543832389
0.4702672646
0.4057913760
0.8576851607
0.6798079013
0.9370563031
0.5057865006
0.9328633840
0.4767307273
0.9261947612
0.2685413030
0.3865301115
0.9155473518
0.5086668653
0.9119099030
0.5247686136
0.5292592558
0.2977547767
0.5498570291
0.4962302465
0.5701191647
0.2685442696
0.3945116019
0.3227125256
0.4455608913
0.5626397645
0.3795242121
0.4930006967
0.4925700696
0.4289535606
0.3500194121
0.4805748558
0.9178917377
0.4116389873
0.5154298930
0.2586984475
0.5443962562
0.2447128102
0.3729737997
0.4996739359
0.9158652037
0.9137102375
0.4092097243
0.4971102058
0.9149651596
0.5184943517
0.2761139647
0.9017616796
0.4552106664
0.8326168247
0.9470597502
0.9891086903
0.4403986575
0.8735137647
0.9517735505
0.9401229905
0.7038003059
0.5410789725
0.4453082605
0.3408839864
0.9518692680
0.3826420379
0.4754117292
0.8708499052
0.9665660672
0.4351202321
0.6687841431
0.5161659046
0.9467321839
0.8875553585
0.7981093291
0.4394318513
0.9694749408
0.2937548230
0.4538780523
0.2667623063
0.4321018602
0.5426172463
0.3593521326
0.5487376954
0.9379990140
0.3629567340
0.2886509046
0.4105368140
0.9357288194
0.4975014027
0.8524700408
0.3972985640
0.3215691442
0.9526360450
0.9150719721
0.4082088036
0.3476464116
0.5234615646
0.9571037453
0.4340256274
0.3408865570
0.5086249063
0.9493426456
0.5247629403
0.4404018544
0.3865383632
0.5057854206
0.9173355901
0.2372385202
0.5318442063
0.5543713715
0.4439557359
0.5444459416
0.9745649024
0.5443854752
0.4601910185
0.3215696696
0.5229643734
0.4205945819
0.3729794860
0.4702668136
0.4092168167
0.5154271676
0.9797085737
0.9697161713
0.9747992442
0.8747507969
0.5626291647
0.3460349709
0.2980159609
0.3680905007
0.9341219955
0.9598900938
0.2587000032
0.3735501959
0.9476288369
0.6771162981
0.4661515514
0.5314085450
0.5119357576
0.7545902181
0.3993478213
0.3417242725
0.4929996935
0.9774611298
0.4909861813
0.5415155921
0.5176396927
0.9682336478
0.9783698991
0.9644138330
0.9717923787
0.5656654691
0.4345413663
0.5242867803
0.5045370305
0.9541883037
0.9561499754
0.2977573031
0.3806165288
0.3063334669
0.4949677366
0.9833775140
0.5461634167
0.5019213692
0.9735987863
0.9772254057
0.3680967352
0.3739524823
0.9872735641
0.3866053168
0.4055256119
0.6216423603
0.9847770835
0.9723496830
0.9818146893
0.4060122849
0.4212739925
0.6278234155
0.5150516460
0.4982656170
0.9858059261
0.9854288194
0.9769998460
0.9833711301
0.7322400367
0.9836116153
0.9808513733
0.5227272785
0.9697170013
0.9709400958
0.4082008489
0.9811846260
0.4116386177
0.9726043298
0.4757445936
0.4517520520
0.9810992103
0.4340158584
0.9787680413
0.9654394707
0.4971052974
0.9596243036
0.4657219066
0.4043640955
0.9600125356
0.9494702065
0.5051920922
0.6436936864
0.6497991609
0.6497467627
0.6436212329
0.6557103860
0.6601209285
0.6468638253
0.6453818687
0.6580233566
0.6610534705
0.6630786882
0.6579695848
0.6506565190
0.6358898638
0.6549898265
0.6364602349
0.6453636040
0.6556944916
0.6301554979
0.6271108112
0.6511831257
0.6644591349
0.6305614037
0.6386207212
0.6159030401
0.6616928473
0.6397483666
0.6064728740
0.6517183437
0.6314010636
0.6201839275
0.6253749003
0.6708231147
0.6030887132
0.6281068759
0.6364578272
0.6430505494
0.6301381322
0.6678722757
0.6067722345
0.6430024295
0.6007877952
0.6761676533
0.6402427280
0.6561937105
0.6085133219
0.6156898621
0.6605303087
0.6616874645
0.6159002026
0.6590759620
0.6427557893
0.6467112496
0.6708101829
0.6349987602
0.7334436495
0.6150521940
0.6852964501
0.6201530368
0.6734848162
0.6280242896
0.6201878523
0.7018327768
0.7255486520
0.6030776106
0.6761511901
0.6814668142
0.6329011455
0.6704160404
0.6718406392
0.6518504962
0.6718374606
0.6276837139
0.6054457580
0.6947408163
0.6220632875
0.6400314633
0.7036450894
0.7091841821
0.6007576122
0.6525946621
0.7334452128
0.9364273062
0.9256650103
0.6201050945
0.6852835948
0.6905163304
0.7015523366
0.6700452523
0.6429173463
0.6226794315
0.7212822329
0.7081429765
0.9483066796
0.9134394251
0.7125738519
0.6885520306
0.6742650227
0.7035643432
0.7650383427
0.7844849612
0.6428983855
0.8491063163
0.7975869798
0.6995797662
0.6057966215
0.8131893870
0.6091939374
0.6295571881
0.6947240320
0.8845176669
0.7091852716
0.6940210878
0.7874883000
0.8234392235
0.8566487204
0.8369432521
0.6275141900
0.6186956968
0.8530918325
0.6984167924
0.6220665265
0.8063632356
0.6904837682
0.7212636645
0.7114631783
0.7123647301
0.8947509976
0.7411485590
0.9102997983
0.9511007420
0.6656410737
0.9257313292
0.6599252914
0.7656854076
0.8872512560
0.7512149928
0.9364934007
0.9187621793
0.8874315613
0.8475205199
0.6185613178
0.9243957260
0.8567234538
0.8229350896
0.7785041957
0.7975993132
0.6192166090
0.6001792876
0.7650580532
0.6984176032
0.7324492719
0.6910482461
0.8538035260
0.8132066416
0.8845092664
0.5993461334
0.7769928833
0.8435161842
0.6091292919
0.8189470131
0.7845163042
0.8035798970
0.6725498460
0.7775811777
0.6293898642
0.9194349999
0.8948099275
0.7420399545
0.6796947956
0.7511305652
0.6046867418
0.7411332836
0.9590387579
0.8902742423
0.9463985830
0.8694034255
0.7278861493
1.0154860609
0.8949462572
0.7233717625
0.6379504395
0.9287194208
0.7360233528
0.7585312422
0.9104207769
0.9766926709
0.8752992631
0.7111281792
1.0529197571
0.7768479507
0.8795268750
0.9747679008
0.9243955613
0.8435659702
0.9491509778
0.7324124457
0.6456148522
0.9297081671
0.7785289299
0.8882093504
0.6001203663
0.9946432919
0.6191954369
0.9395871492
0.7882431063
0.8538245558
0.9463961742
1.0527211693
0.8109114283
0.9286786979
0.7125008674
0.8405976013
0.8849068471
0.7233768006
0.6203220504
0.7584988888
0.8694425570
0.6194250648
0.6619256698
0.9842002675
1.0318839595
0.9579715766
0.8315027648
0.7460027266
0.8903994244
0.6268804629
0.8630056902
0.6046456386
0.9946194813
0.7929813298
0.9153870113
0.6137826142
0.9967506980
0.9284338287
0.9848122131
0.8978454067
0.7732909295
0.9567684426
1.0408454189
0.9926313791
0.9778440027
0.9950884975
0.7682406595
0.9364233795
0.8644074851
0.9298544617
1.0557134960
0.8220541404
1.0399447987
0.9089470477
0.8108422556
0.6203336448
0.8849749412
0.9680571881
0.6325811339
1.0154275252
0.8963608835
0.6226231008
0.8303473014
0.7317059384
0.8954692963
0.6314320838
0.9199283612
0.6137972542
1.0406789987
0.9641022746
0.9732673537
0.6075747338
0.7682547702
0.9848145945
0.8573968289
0.6291041191
0.9155323593
1.0493253144
0.6287040700
1.0590827748
0.9284483105
1.0173976370
0.9951714926
0.7717760010
0.6313589192
0.6541003322
0.8894844828
1.0993083777
1.0397646845
0.9681220343
0.6091071734
1.0748600612
1.0169510600
1.0111712389
0.8865182617
0.9091338843
1.0928516964
0.6303942203
1.0268420369
1.0198296131
0.6359579012
0.6028538493
1.0928528866
0.9952844333
0.6075854430
0.6287138187
0.5926256689
0.6251418631
0.9199857209
1.1019381423
0.6313694574
0.6272064022
1.0954376488
0.8735849107
0.8956266184
0.6301709172
1.0574194842
0.5877040863
0.6268214550
0.6972240611
1.0329504939
0.6361643112
0.5963086173
1.0478003019
1.0937010931
0.6285896505
1.1061764302
1.0111175778
0.6031474980
1.0817606490
1.0951945707
0.8634581878
1.0167169244
1.0752472022
1.0813146734
1.1121909029
0.6392449719
0.6141191025
1.0142430063
0.6359640001
0.8896969351
0.6091171993
1.0992398158
0.6541279101
1.0267958281
1.0883914482
1.0529196546
1.0747988656
1.1079721056
0.6193116478
1.1035852164
0.6244145350
0.8416141960
0.6268360519
0.6272176337
1.0556151396
1.1036093295
1.1123203939
0.5904049508
1.0903087334
0.5975628115
0.6217777677
1.0953602758
0.6361695189
0.8737313164
0.6219619095
0.6260714007
1.0706983368
1.0477449687
0.5831332415
1.0415775169
0.5942027894
1.1018764732
0.6266988317
0.6278160882
1.0800243604
1.1104926163
0.6141283775
0.8215280906
1.0951271425
0.6337788904
0.6392521928
0.8636219861
0.6271843405
1.0751731310
1.1156384184
0.6215465248
1.0528535892
0.5850898138
0.7875792553
1.1185617183
0.5869649804
0.6267083265
1.0554629983
1.0777038344
0.6219685682
1.1122741228
1.0415001364
1.0799323778
0.6275134166
1.1035470720
0.8415875577
0.6268536492
1.1187727497
1.0723351496
0.6236457357
1.0699349516
0.5863793149
1.0919751376
0.6262981660
0.7584981825
1.1162659357
0.6283518745
0.6295325630
0.5794521047
1.1122012880
0.8215143860
0.6275830183
0.6313308326
0.6337867530
0.5951010603
1.1127798241
1.1189892217
0.6191387887
0.6275206218
0.6268638894
0.6285474818
1.0918980803
1.0798302255
0.6184960715
1.0635902411
0.5776589053
1.0722719528
1.1198785805
0.7874719146
0.6293360674
0.6294769407
1.0822151333
0.6147719265
0.6190697687
0.5801608031
1.1028368767
1.1162347048
0.6317335157
1.1127432252
1.1059219423
1.1091228524
0.7129391250
0.6282063564
1.1137298982
0.6641770153
0.6112748746
0.5768306837
0.6092671704
0.5908125767
0.5923216840
0.6294810978
0.5774326874
0.6253140990
0.5625812452
0.6041136197
0.6191477432
0.5505171521
0.6266106300
0.6262356029
1.0633915456
0.6143116073
0.6206760520
0.5838949103
0.5980623674
0.5539836289
0.5694680337
0.6048176281
0.5520217845
0.6293409146
0.6249525814
0.6185022037
1.0949010353
0.5688160559
0.6207145262
1.1058758964
0.9461557778
0.5564662167
1.1090806776
0.9056533943
0.7235078458
1.0815126649
1.0077430962
1.0605845317
0.8517787488
0.6097430056
0.9738299739
1.1040901293
0.9252949228
0.8048354143
1.0922551512
1.0423295225
1.0675248050
0.8827517588
0.5597411768
0.5586274159
0.5919115566
0.6220715660
0.5402124856
0.5139666787
0.6041151156
0.5775108672
0.6092731481
0.6195795933
0.5218851846
0.5766904129
0.6006814448
0.6253189724
0.5711309111
0.5974346914
0.5840524271
0.6151179067
0.5610923206
0.5679148411
0.5929040229
0.6262397214
0.5490636012
0.5233646465
0.6100464334
0.5636714786
0.5056254745
0.5850246242
0.6126641205
0.5775495206
0.5980601845
0.5906191631
0.6206794777
0.9332192807
0.5317078770
0.5087692883
0.6682745482
0.8302567265
0.8955215177
0.8286016307
1.0420454992
1.0780967679
1.0641057662
0.6684225166
1.0990993976
1.0378574433
0.9370232041
0.9849897903
0.5653261395
1.0948402058
0.9917718812
0.8923405140
0.9131524192
0.5442238396
0.7741750600
0.8672093819
0.9176574295
0.7685470577
1.0291011745
1.0603563070
1.0767214550
0.5688870393
1.0908290461
1.0463131817
0.9582386701
1.0175247644
0.9584001555
0.8671285734
0.5394549696
0.5781285673
0.6057699880
0.6195832580
0.5881787040
0.5672527684
0.5283928855
0.4682413886
0.5606968790
0.5219120903
0.5840594229
0.5180701521
0.4734968344
0.5497194826
0.5919036194
0.5503198615
0.5793970851
0.6126661149
0.6023530722
0.5758631647
0.5347716922
0.4590912423
0.5704387220
0.5221096855
0.5850104388
0.5288343880
0.4911956155
0.5584175427
0.5992135043
0.6119568226
0.8832953173
0.8061616941
1.0857065068
0.6085966839
0.9623700310
0.9272517227
0.5063076646
0.9727132166
1.0172986599
1.0103562963
1.0427220905
0.4607336113
0.5417332636
0.8751799217
0.8060370604
0.9223145371
1.0619615969
0.7360733716
0.8515201863
0.8436537277
1.0756397384
0.5087747973
0.9892003320
0.9073733555
0.9469883212
1.0043646859
1.0191321859
1.0556801202
0.4913497793
0.9010512495
0.7239634048
0.9414334820
1.0375963633
0.9208393042
0.8179960157
0.4352524643
0.8868461928
0.5489063432
0.5781130321
0.9338434991
0.9100896773
0.4977217845
0.7411632897
0.4375783417
0.5280911848
0.8895049398
0.9034532597
0.9246126429
0.5943437880
0.4912483889
0.4682540223
0.5442181508
0.5215747524
0.5689663578
0.5272963281
0.3969430708
0.8652176035
0.5737056967
0.8721100692
0.9015151680
0.5631138574
0.9201605760
0.7445906565
0.4255438711
0.8780734396
0.5591704065
0.5865690453
0.9500640896
0.9110578685
0.5107525104
0.8461948929
0.4587443061
0.5383648939
0.8981444320
0.9006636680
0.9370100570
0.6023526787
0.5065919347
0.4746856714
0.5549077435
0.5330341976
0.5704181999
0.4479625764
0.4993298108
0.8494456477
0.5901263289
0.8817747628
0.9058143048
0.5647170445
0.4159151805
1.0097775210
0.4332192518
0.9152019516
0.2930406598
0.9777244533
0.8564188183
1.0391751161
0.5187556509
0.5157963606
0.5032470237
0.9376137287
0.5020540252
0.3451080055
0.5691427635
0.9890917101
0.5436157210
0.3584620389
0.9549985126
0.3098723586
1.0680034314
0.4802297337
0.9018617053
0.5179828222
0.7728535775
0.8633248386
0.4090553855
0.7922200475
0.4223376286
1.0264283149
0.4652803504
0.8923255727
0.2886473535
0.9836180666
0.8803875791
1.0101724060
0.5274169436
0.5214887875
0.5050650304
0.9578545119
0.4855025153
0.3365921803
0.7124600506
0.9794936231
0.4607471805
0.3629524192
0.9345841536
0.3115827040
1.0553676938
0.9201121057
0.6753624628
0.8274270995
0.3924647640
0.8291627414
0.5712100292
0.9267183352
0.8974966601
0.9445282111
0.4460241532
0.7411852493
0.8576727914
0.9205559203
0.5310445604
0.9334916830
0.9273185792
0.9274479172
0.9334763028
0.2728573567
0.5085555785
0.8902709763
0.7437656625
0.3969426570
0.8238552590
0.3540654170
0.7429631672
0.5527593678
0.9099777689
0.9246350307
0.8594910573
0.9158563162
0.8902696517
0.9155539016
0.9927571966
0.5814245908
0.4727453696
0.9015298570
0.4515904854
0.3984560456
0.3325340640
0.9178729663
0.9136978964
0.8238650829
0.9119031082
0.9134501857
0.8894945825
0.9101228421
0.9220983549
0.5630970663
0.4352769279
0.8721135380
0.8646956044
0.9159028432
0.6976931400
0.9246262648
0.9127340752
0.9023074503
0.9672121374
0.3266356327
0.5553697468
0.7411442531
0.9259803663
0.5421337781
0.9338595796
0.9343985879
0.9290737481
0.3830977891
0.5199185324
0.8959762377
0.8080499255
0.3047224824
0.3047199855
0.8867058523
0.5548884747
0.9113806487
0.9158273188
0.8797426152
0.9118909531
0.9075722736
1.0087513183
0.5901224500
0.5965020103
0.8780958287
0.8962315148
0.4751541473
0.3540681516
0.9173056516
0.9125039913
0.8521559211
0.8973616437
0.9138392431
0.8817690304
0.9058133074
0.9232052106
0.5728821791
0.4344048447
0.8462148557
0.8763444882
0.5162603793
1.0434547101
0.9571174604
0.9357201245
0.9578385930
0.4947188968
0.5146312328
0.8956915113
0.4855015145
0.8735160305
0.8370282197
0.7489900033
0.3150556196
0.9379910093
0.5480644048
0.5157931933
0.5374617370
1.0062731942
0.4460950479
0.4908392428
0.9476254936
0.9338291190
0.5114228741
0.9588231908
0.9452532760
0.4159191421
0.5091832775
0.3333103289
0.3333154035
0.4414908180
0.4969408427
0.8426585397
0.9267616192
0.4035466145
0.3177425676
0.5682768130
0.5284058557
0.4452966656
0.7443464461
0.5112423328
0.5089081310
0.4038688805
0.5075707305
0.9526088096
0.5266753484
1.0304360286
0.9526402960
0.9343889876
0.9532040102
0.5156973658
0.8712878761
0.5050647768
0.7444698279
0.6329291033
0.3177461843
0.9341111916
0.5583811919
0.5214829841
0.5398879804
0.9776604503
0.4538775218
0.5053736733
0.9426202758
0.9159339566
0.5112421098
0.9605884207
0.9424958662
0.4413546601
0.5032482799
0.3365964516
0.4504920152
0.4691220089
0.4332440255
0.8082630626
0.9263355585
0.4090575306
0.5766049775
0.5274096442
0.5111604427
0.4114825498
0.9037644345
0.5208182965
0.5114221300
0.4160296533
0.9449123185
0.2931921241
0.5480507943
0.4908421327
0.2728598527
0.5682647623
0.9273157730
0.2812758191
0.4114952323
0.3313497129
0.5362217100
0.4409429365
0.5447805589
0.3844751624
0.9130804943
0.4591839798
0.8697253843
0.5007420045
0.4160432559
0.3416957595
0.8697384855
0.8494386004
0.7429689128
0.4561133625
0.9099692348
0.9501156655
0.2543991948
0.4479726067
0.9130986314
0.3959801662
0.4994711029
0.9267104744
0.9006752476
0.2560267798
0.4912041578
0.5711797587
0.5344372577
0.9205639862
0.8875438226
0.2708744103
0.2540477457
0.9078046989
0.3702125544
0.4873359581
0.9519507265
0.9268568289
0.4993382797
0.9103683653
0.9200900156
0.3731738921
0.4986556020
0.9103618791
0.9124284575
0.5162539286
0.2842970832
0.9039572219
0.5179094786
0.5374488710
0.9054466326
0.3015298430
0.5583678593
0.5053717010
0.2531355005
0.5765972620
0.9259845998
0.2708774547
0.9261881778
0.4038841234
0.3249048477
0.6859275753
0.4244241322
0.5558271143
0.3739519897
0.4828855584
0.4797564462
0.4415022068
0.3493899846
0.6912585632
0.9038348655
0.4995823365
0.4517579566
0.9227127081
0.9328748101
0.9134690197
0.3987088803
0.5094728643
0.9276961598
0.2639562454
0.4602624741
0.5361263880
0.8867138291
0.9200751371
0.2531333337
0.2516242039
0.3563577489
0.4757523497
0.9246326715
0.9196869791
0.3982142517
0.4782912725
0.9161909921
0.9221087774
0.5266650462
0.2806298574
0.9140337713
0.5270272365
0.5398746170
0.9127914003
0.4691299781