<VTKFile type="UnstructuredGrid" version="0.1">
	<UnstructuredGrid>
		<Piece NumberOfPoints="1862" NumberOfCells="3498">
			<CellData>
				<DataArray type="Int32" Name="type" NumberOfComponents="1" Format="ascii">
0
0
0
0
0
0
0
0
0
0
0
0
0
0
0
0
1
0
0
1
0
0
0
0
0
0
0
0
0
0
0
0
0
1
0
0
0
0
0
0
0
0
0
0
0
0
0
0
0
0
1
0
0
0
0
0
0
0
0
0
0
1
0
0
0
0
0
0
0
0
0
0
0
0
0
0
0
0
0
0
0
0
0
0
0
0
0
0
0
0
0
0
0
0
0
0
0
0
0
0
0
0
0
0
0
0
0
0
0
0
0
0
0
0
0
0
0
0
0
0
0
0
0
1
0
0
0
0
0
0
0
0
0
0
0
0
0
0
0
0
0
0
0
0
0
0
0
0
0
0
0
1
0
1
1
0
0
0
0
0
0
0
0
0
0
0
0
0
1
0
1
0
0
0
0
1
0
0
0
0
0
0
0
0
1
1
0
0
0
0
0
1
0
0
0
0
0
0
0
0
1
0
0
0
0
0
0
0
0
0
0
0
0
0
0
0
0
0
0
0
0
0
0
0
0
0
0
0
0
0
0
0
0
1
0
0
0
0
0
0
0
0
0
0
0
0
0
0
0
0
0
0
0
0
0
0
0
0
0
0
0
0
0
0
0
0
0
0
0
0
0
0
0
0
0
0
0
0
0
0
0
1
0
0
0
0
0
0
0
0
0
0
0
0
0
0
0
0
0
0
0
0
0
0
0
0
0
0
0
0
0
0
0
0
0
0
0
0
0
0
0
0
0
0
0
0
0
0
0
0
0
0
1
0
0
0
0
0
0
0
0
0
0
0
0
0
0
0
0
0
0
0
0
0
0
0
0
0
0
0
0
0
0
0
0
0
0
0
0
0
0
0
0
0
0
0
0
0
0
0
0
0
0
0
0
0
0
0
0
0
1
0
0
0
0
0
0
0
0
0
0
0
0
0
0
0
0
0
0
0
0
0
0
0
0
0
0
0
0
0
0
0
0
0
0
0
0
0
0
0
0
0
0
0
0
0
0
0
0
0
0
0
0
0
0
0
0
0
0
0
0
0
0
0
0
0
0
0
0
0
0
0
0
0
0
0
0
0
0
0
0
0
0
0
0
0
0
0
0
0
0
0
0
0
0
0
0
0
0
0
0
0
0
0
0
0
0
0
0
0
0
0
0
0
0
0
0
0
0
0
0
0
0
0
0
0
0
0
0
0
0
0
0
1
0
0
0
0
0
0
0
0
0
0
0
0
0
0
0
0
0
0
0
1
0
0
0
0
0
0
0
0
0
0
0
0
0
0
0
0
0
0
0
0
0
0
0
0
0
0
0
0
0
0
0
0
0
0
0
0
0
0
0
0
0
0
0
0
0
0
0
0
0
0
0
0
0
1
0
0
0
0
0
0
0
0
0
0
0
0
0
0
0
0
0
0
0
0
0
0
0
1
0
0
0
0
0
0
0
0
0
0
0
0
0
0
0
0
0
0
0
1
0
0
0
1
0
0
0
0
0
0
0
0
0
0
0
0
0
0
0
0
0
0
0
0
0
0
0
0
0
1
0
0
0
0
0
0
0
1
0
0
0
0
0
0
0
0
0
0
0
0
0
0
0
0
0
0
0
0
0
0
0
0
0
0
1
0
0
0
0
0
0
0
1
0
0
0
0
0
0
1
0
0
0
0
0
0
0
0
0
0
0
0
0
0
0
0
0
0
0
0
0
0
0
0
0
0
0
0
0
0
0
0
0
0
0
0
0
0
1
0
0
0
0
0
1
0
0
0
0
0
0
0
1
0
0
0
0
0
0
0
0
0
0
0
0
0
1
0
0
0
0
0
0
0
0
0
0
0
0
0
0
0
0
0
0
0
0
0
0
0
0
0
0
0
0
0
0
0
0
0
0
0
0
0
0
0
0
0
0
0
0
0
0
0
0
0
0
0
0
0
1
0
0
0
0
0
0
0
0
0
0
0
0
0
0
0
0
0
0
0
1
0
0
0
0
0
0
0
0
0
1
0
0
0
0
0
0
0
0
0
0
0
0
0
0
0
0
0
0
0
0
0
0
0
0
0
0
0
0
0
1
0
1
0
0
0
0
0
0
0
0
0
0
0
0
0
0
0
0
0
0
0
0
0
0
0
0
0
0
0
1
0
0
0
1
0
0
0
0
0
0
0
0
0
0
0
0
0
0
0
0
0
0
0
0
0
0
0
0
0
0
0
0
1
0
0
0
0
0
0
0
0
0
0
0
0
0
0
0
0
0
0
0
0
0
0
0
0
0
1
0
0
0
0
0
0
0
0
0
0
0
0
0
0
0
0
0
0
0
0
0
0
0
1
0
0
0
0
0
0
1
0
0
0
0
0
0
0
0
0
0
0
1
0
0
0
0
0
0
0
0
0
0
0
0
0
0
0
0
0
0
0
0
1
0
0
0
0
0
0
0
0
0
0
0
1
0
0
0
0
0
0
0
0
0
0
0
0
0
0
0
0
0
0
0
0
0
1
0
0
0
0
0
0
0
0
0
1
1
0
1
0
1
0
0
0
0
0
0
0
0
0
0
0
1
0
0
0
0
0
1
1
0
0
0
0
0
0
1
0
0
0
0
0
1
1
1
0
0
0
0
0
0
0
0
0
0
0
0
1
1
0
0
1
0
0
0
0
0
1
0
0
0
1
0
1
0
0
0
0
0
0
0
1
0
0
0
0
0
0
0
1
0
0
1
0
0
0
0
0
0
0
0
0
0
0
0
0
0
0
1
0
0
0
0
0
0
0
0
0
0
0
0
0
0
0
0
0
0
0
0
0
0
0
0
0
0
0
0
0
0
0
0
0
0
0
0
1
0
0
0
0
0
0
1
0
0
0
1
0
0
0
0
0
0
0
0
0
0
0
1
0
0
0
0
0
0
0
0
0
0
0
0
0
0
0
0
0
0
0
0
0
0
0
0
0
0
0
0
0
0
0
0
0
0
0
0
0
0
0
0
1
1
0
0
0
0
0
0
0
0
0
0
0
0
0
1
0
0
0
0
0
0
0
0
0
0
0
0
0
0
0
0
0
0
0
0
0
0
0
0
0
0
0
0
0
0
0
0
0
0
0
0
0
0
0
0
0
0
0
0
0
0
0
0
0
0
0
0
0
0
0
0
0
0
0
0
0
0
0
0
0
0
0
0
0
0
0
0
1
1
0
0
0
0
0
0
0
0
1
0
0
0
0
0
0
0
0
0
0
0
0
0
0
0
0
0
0
0
0
0
0
0
1
0
0
0
0
0
0
0
0
0
0
0
0
0
0
0
0
1
0
0
0
0
0
0
0
0
0
0
0
0
0
0
0
0
0
0
0
0
0
0
0
0
0
0
0
0
0
0
0
0
0
0
0
0
0
0
0
0
0
0
0
0
0
0
0
0
0
0
0
0
0
0
0
0
0
0
0
0
0
0
0
0
0
0
0
0
0
0
0
0
0
0
0
0
0
0
0
0
0
0
0
0
0
0
0
0
0
0
1
1
0
0
0
0
0
1
0
0
0
0
0
0
0
0
0
0
0
0
1
0
0
0
0
0
0
0
0
0
0
0
0
0
0
0
0
0
0
0
0
0
0
0
0
0
0
0
0
0
0
0
0
0
0
0
0
0
0
0
0
0
0
0
0
0
0
0
0
0
0
0
0
0
1
0
1
0
0
0
0
0
0
0
0
0
0
0
0
0
0
0
0
0
0
1
0
0
0
0
0
0
0
0
0
0
0
0
0
0
0
0
0
0
0
0
0
0
0
0
0
0
0
0
0
0
0
0
0
0
0
0
0
0
0
0
0
0
0
0
0
0
0
0
0
0
0
0
0
0
0
0
0
0
0
0
0
0
0
0
0
0
0
0
0
0
1
0
0
0
0
0
0
0
0
0
0
1
0
0
0
0
0
0
0
0
0
0
0
0
0
0
0
0
0
0
0
0
0
0
0
0
0
0
0
0
0
0
0
0
0
0
0
0
0
1
0
0
0
0
0
0
0
0
0
0
0
0
0
0
0
0
0
0
0
0
0
0
0
0
0
0
0
0
0
0
0
0
0
0
0
0
0
0
0
0
0
0
0
0
0
0
0
0
0
0
0
0
0
0
0
0
0
0
0
0
0
0
0
0
0
0
0
0
0
0
0
0
0
0
0
0
0
0
0
0
0
1
0
0
0
0
0
0
0
0
0
0
0
0
0
0
0
0
0
0
0
0
0
0
0
0
0
0
0
0
0
0
0
0
0
0
0
0
0
0
0
0
0
0
0
0
0
0
0
0
0
0
0
0
0
0
0
0
0
0
0
0
0
0
0
0
0
0
0
0
0
0
0
0
0
0
0
0
0
0
0
0
0
0
0
0
0
0
0
0
0
0
0
0
0
0
0
0
0
0
0
0
0
0
0
0
0
0
0
0
0
0
0
0
0
0
0
0
0
0
0
0
0
0
0
1
0
0
0
0
0
0
0
0
0
0
0
0
0
0
0
0
0
0
0
0
0
0
0
0
0
0
0
0
0
0
0
0
0
0
0
0
0
0
0
0
0
0
0
0
0
0
0
0
0
0
0
0
0
0
0
0
0
0
0
0
0
0
0
0
0
0
0
0
0
0
0
0
0
0
0
0
0
0
0
0
0
1
0
0
0
0
0
0
0
1
0
0
0
0
0
0
0
0
0
0
0
0
0
0
0
0
0
0
0
0
0
0
0
0
0
0
0
0
0
0
0
0
0
0
0
0
0
1
0
0
0
0
0
0
0
0
0
0
0
0
0
0
0
0
0
0
0
0
0
1
0
0
0
0
0
0
0
0
0
0
0
0
1
1
0
0
0
0
0
0
0
0
0
0
0
0
0
0
0
1
1
0
1
0
0
0
0
0
0
0
0
0
1
0
0
0
0
0
0
1
0
0
0
0
0
0
0
0
0
0
1
0
0
0
0
1
0
1
0
0
0
0
0
0
0
1
0
0
0
1
0
0
0
1
0
1
1
0
0
1
1
0
0
0
1
0
0
0
1
0
0
0
0
0
0
0
0
0
1
0
0
0
0
0
0
1
0
0
0
0
0
0
0
0
0
0
0
0
0
0
0
0
0
0
0
0
0
0
0
0
0
0
0
1
0
0
1
0
0
0
0
0
0
0
0
0
0
0
0
0
0
0
0
0
0
1
0
0
1
0
0
0
0
0
0
0
0
0
0
0
1
0
0
1
0
0
0
0
0
0
0
0
0
0
0
1
1
0
0
0
0
0
0
0
0
0
0
0
0
1
0
0
0
0
0
0
0
0
0
0
0
0
0
0
0
0
0
1
0
0
0
0
0
0
0
0
0
0
0
0
0
0
0
0
0
1
0
0
0
0
0
0
0
0
0
0
0
0
0
0
0
0
0
0
0
0
0
0
0
0
0
0
0
0
0
0
0
0
0
0
0
0
0
0
0
0
1
0
0
0
0
0
0
0
0
0
0
0
0
0
0
0
0
0
0
0
0
0
0
0
0
0
0
0
0
0
0
0
0
0
0
0
0
0
0
0
0
0
0
0
0
0
1
0
0
0
0
0
0
0
0
0
0
0
0
0
0
0
0
0
0
0
0
0
0
0
0
0
0
0
0
0
0
0
0
0
0
0
0
0
0
0
0
0
0
0
0
0
0
0
1
0
0
0
0
0
0
0
0
0
0
1
0
0
0
0
0
0
0
0
0
0
0
0
0
0
0
1
0
0
1
0
0
0
0
0
0
0
0
0
0
0
0
0
0
0
0
0
0
0
0
0
0
0
1
0
0
0
0
0
0
0
0
0
0
0
0
0
0
0
0
0
0
0
0
0
0
0
0
0
0
0
0
0
0
0
0
0
0
0
1
0
0
0
0
0
0
0
0
0
0
0
0
0
0
0
0
0
0
0
0
0
0
0
0
0
0
0
0
0
0
0
0
0
0
0
0
0
0
0
0
0
0
0
0
0
0
0
0
0
0
0
0
0
0
0
0
0
0
0
0
0
0
0
0
0
0
0
0
0
0
0
0
0
0
0
0
1
0
0
0
0
0
0
0
0
0
0
0
0
0
0
0
0
0
0
0
0
0
0
0
0
0
0
0
0
0
0
0
0
0
0
0
0
0
0
0
1
0
0
0
0
0
0
0
0
0
0
0
0
1
1
0
0
0
0
0
0
0
0
0
0
0
0
0
0
0
0
0
0
0
0
0
0
0
0
0
0
0
0
0
0
0
0
0
0
0
0
0
0
0
0
0
0
0
0
0
0
0
0
0
0
0
0
0
0
0
0
0
0
0
0
0
0
0
0
0
0
0
0
0
0
0
0
0
0
0
0
0
0
0
0
0
0
0
0
0
0
0
0
0
0
0
0
0
0
0
0
0
0
0
0
0
1
0
1
0
0
0
0
0
0
0
1
1
1
1
0
0
0
0
0
0
0
0
0
0
0
0
0
0
0
0
0
0
0
0
0
0
0
0
0
0
0
0
1
1
0
0
0
0
0
0
0
0
0
0
0
0
0
0
0
0
0
0
1
0
0
0
0
0
0
0
1
1
0
1
1
0
0
1
0
0
0
0
0
0
0
1
0
1
0
0
0
0
0
0
0
0
0
0
0
0
0
0
0
0
0
0
0
0
0
0
0
0
0
0
0
1
1
0
0
0
1
1
0
0
0
0
1
0
0
1
0
1
0
0
0
0
0
1
0
0
0
1
0
0
0
0
0
0
0
0
0
0
0
0
0
0
0
0
0
0
0
0
0
0
0
0
0
0
0
1
0
0
0
0
0
0
1
0
0
0
0
0
0
0
0
0
0
0
0
0
0
0
0
0
0
0
0
0
0
0
0
0
0
0
0
0
1
0
1
0
0
0
0
0
0
0
1
0
0
0
0
0
0
0
0
0
0
0
1
0
0
0
0
0
0
0
0
0
1
0
0
0
0
0
0
0
1
0
0
0
0
0
0
0
1
0
0
0
0
0
0
0
0
0
0
0
0
0
0
0
0
0
0
0
1
0
1
0
0
0
0
0
1
0
0
0
0
0
0
0
0
0
0
0
0
0
0
0
0
0
0
0
0
0
0
0
0
0
1
0
1
0
0
0
0
0
0
0
0
0
1
0
0
0
0
0
1
0
0
0
0
0
0
0
0
0
0
0
0
0
0
0
1
0
0
0
0
0
0
0
0
1
0
0
0
0
0
0
0
0
0
0
0
0
0
0
0
0
0
0
0
0
0
0
0
0
0
0
0
0
0
0
1
0
0
0
0
0
0
0
0
0
0
0
0
0
0
0
0
1
0
0
0
0
0
0
0
0
1
0
0
0
0
0
0
0
0
0
1
0
0
0
0
0
1
0
0
0
0
0
0
0
0
0
0
0
0
0
0
0
0
0
0
0
1
0
0
0
0
0
0
1
0
0
0
0
0
0
0
0
1
0
0
0
0
0
0
0
0
0
0
0
0
0
0
1
0
0
1
0
0
0
1
0
0
0
0
0
0
0
0
0
0
0
0
0
0
0
0
1
0
0
0
0
0
0
0
0
0
0
1
0
1
0
0
0
0
0
0
1
0
0
0
0
0
0
0
0
0
0
0
0
0
0
0
0
0
0
0
0
0
0
0
0
0
0
0
1
1
0
0
0
0
0
0
1
0
0
0
0
0
0
0
0
0
0
0
0
0
1
0
0
0
0
0
0
0
1
0
0
0
0
0
0
0
0
0
0
0
0
0
0
0
0
0
0
0
0
0
0
0
0
0
0
0
1
0
0
0
0
0
0
0
0
0
0
1
0
0
1
0
0
0
0
0
0
0
0
0
0
0
0
0
0
0
0
0
0
0
0
0
0
0
0
0
0
0
0
0
1
0
0
0
0
0
0
0
1
0
0
0
0
0
0
0
1
0
0
0
0
1
0
0
0
0
0
0
0
0
0
0
0
1
0
1
0
0
0
1
0
				</DataArray>
				<DataArray type="Float64" Name="h" NumberOfComponents="1" Format="ascii">
0.9236082630
0.9236739928
0.9087917831
0.9204635577
0.9074726676
0.9116288167
0.9154116066
0.9260000364
0.9193578195
0.9329149162
0.9237173137
0.9130460304
0.9266808759
0.9282811968
0.9259550588
0.9309028137
0.9158465775
0.9321328309
0.9226009805
0.9242050102
0.9013639145
0.9248890000
0.9135542624
0.9016087696
0.9197541001
0.9352436272
0.9149968640
0.8772866025
0.9063124820
0.9301931200
0.9272774304
0.9135732796
0.9243196433
0.9072307628
0.8824569819
0.8975770399
0.8903644843
0.9086017256
0.8748579298
0.8990036487
0.9052992607
0.8788892317
0.9160622466
0.9009290603
0.8960552829
0.8854354848
0.9089997049
0.8774283660
0.8486425615
0.8459716594
0.8967111787
0.8926539640
0.9006289828
0.8591247332
0.8845700359
0.9100129864
0.8857866612
0.8698800840
0.8669259803
0.8647313790
0.8649608278
0.8663906485
0.8516499984
0.8919330018
0.8933964864
0.8633508500
0.8427223039
0.8493217137
0.8656561738
0.8686753947
0.8657713783
0.8839735716
0.9024735429
0.8574093019
0.8626296705
0.8578589721
0.8699125125
0.8621881808
0.8733141796
0.8652323369
0.8617963485
0.8589017762
0.8483948465
0.8463296904
0.8728764567
0.8525360522
0.8604441288
0.8423049966
0.8587960761
0.8470821825
0.8584964674
0.8586519764
0.8616975878
0.8446092401
0.8499078523
0.8542223480
0.8405172853
0.8717112334
0.8668680270
0.8604179825
0.8483765123
0.8625133306
0.8495939702
0.8729186124
0.9374440906
0.8392901124
0.8409082173
0.8494417090
0.8625387835
0.8520799811
0.8435930385
0.8464702122
0.8585029920
0.8554890629
0.8507744886
0.8558875545
0.8519898764
0.9368040598
0.8540463915
0.8526722719
0.9374262925
0.8433582819
0.8441463538
0.9406787639
0.8553199520
0.8506546494
0.8529959934
0.9417613824
0.8576606968
0.8542723418
0.8569926069
0.8431975677
0.8542819697
0.8580560434
0.9355203709
0.8567970781
0.9372954142
0.8561136928
0.8610936673
0.9273876378
0.9428129717
0.9383076824
0.8561939207
0.9199629520
0.8455650623
0.8588767786
0.9323763564
0.8518978107
0.9396351134
0.8515770962
0.9385869743
0.8565309077
0.8546477441
0.8534513366
0.8613641903
0.8540639481
0.8547946805
0.9407769650
0.8522273620
0.9452829200
0.9245508296
0.8529842140
0.9350601538
0.9431999008
0.9411822695
0.8518488760
0.9094971061
0.9313607685
0.9439272913
0.8525443286
0.8551642988
0.9454029305
0.8538238201
0.9409149642
0.9036175557
0.8534619528
0.9155690333
0.8479329582
0.8533287898
0.9436268429
0.8537577728
0.8889317291
0.9455101590
0.8373729956
0.9456941125
0.9475024779
0.8963128076
0.8525964617
0.9448816479
0.9479403918
0.8732317809
0.8531607370
0.9468793497
0.8809088542
0.8536134475
0.8495844592
0.9426212661
0.8572296334
0.8655921082
0.8494655848
0.9480643503
0.8326694810
0.9477570039
0.8518235787
0.8423989226
0.9456235181
0.9302031512
0.9385906149
0.8501253363
0.9148648525
0.8736448484
0.9468417217
0.9445525201
0.9467955572
0.9349049013
0.8578998818
0.9236909386
0.9438103278
0.8892091934
0.9462996356
0.8364805276
0.8414475258
0.9032829986
0.8336661969
0.8267400195
0.8474770580
0.8460771259
0.8275796223
0.8296318300
0.8442898118
0.8499516080
0.8377586510
0.8261559262
0.8481867721
0.8469960698
0.8299906289
0.8657116380
0.9266759389
0.9472418092
0.9090246417
0.8663965504
0.9365371839
0.9445901325
0.9095218891
0.9369005654
0.9275623973
0.9451411854
0.8817504221
0.9323379154
0.9425603654
0.9190235997
0.8820966672
0.9430943368
0.8498527044
0.8506369605
0.9459221987
0.9197649778
0.9330748366
0.9468054271
0.8346893443
0.8965754045
0.8193892383
0.8197834598
0.8266993932
0.8234861247
0.8449826185
0.8443762162
0.8295513659
0.8465520411
0.8355453082
0.8418019515
0.8966603329
0.8420701644
0.8266110633
0.8303142291
0.8232828655
0.8185088722
0.8226333757
0.8311759595
0.8251043735
0.8445350029
0.8451671223
0.8455384363
0.8435725528
0.8391785910
0.8387838134
0.8243305670
0.9223055408
0.9435669404
0.9431669146
0.9230531497
0.8587487866
0.9338706813
0.9345762613
0.9027960048
0.8595652298
0.9029787026
0.9289210006
0.9407293586
0.9459302409
0.9444343109
0.9296926849
0.8745354078
0.8444518904
0.8434649412
0.9136370005
0.8753068663
0.9141836184
0.9413857495
0.8136620773
0.8189420467
0.8125948451
0.8431619258
0.8235107354
0.8365309082
0.8275311130
0.8898842007
0.8363345555
0.8407084438
0.8895903286
0.8192521724
0.8161330814
0.8289153963
0.8413323542
0.8119884531
0.8165907950
0.8152156902
0.8421001155
0.8228057580
0.8322396442
0.8393591917
0.8398439745
0.8416285086
0.8182724996
0.8240384977
0.8185112815
0.8332177330
0.9178605293
0.8255519353
0.8966182783
0.8539881989
0.8964050853
0.9416438897
0.8528100944
0.9304413434
0.9172819556
0.9312721469
0.9410825174
0.8170321088
0.8007582558
0.8395742525
0.8004980238
0.9254925582
0.9391604073
0.8175282819
0.9078899394
0.7962933038
0.8688507936
0.9081394584
0.8021788545
0.8087712952
0.8179769864
0.9444401467
0.8679429950
0.8382396325
0.9247416477
0.8126602473
0.8032907228
0.7968496160
0.9418148403
0.7948624272
0.8070011099
0.9382854988
0.8363784211
0.8200146402
0.8120398049
0.8370493609
0.9260691449
0.8304973862
0.8092205829
0.8191603004
0.8298030459
0.8392499460
0.8832445753
0.8218207972
0.8827977635
0.8103035039
0.8116750909
0.8064270553
0.8818963941
0.8374588159
0.8144178621
0.8153399471
0.8270977116
0.8351149560
0.8167305752
0.9205724670
0.9071935570
0.8998941557
0.8489333858
0.8064652778
0.8335714278
0.8602828086
0.8250712824
0.8376610065
0.8380887707
0.8265942208
0.8133641472
0.8097505666
0.8714394066
0.8083877550
0.8058143843
0.8105569967
0.7998037976
0.9122452377
0.8199028065
0.8199842990
0.8901088284
0.8043295546
0.8026204745
0.8119703941
0.8209993067
0.9271910712
0.8132292236
0.8163091072
0.8023891018
0.8281520253
0.9391479133
0.8029865135
0.8478057387
0.7977767668
0.8138878232
0.7964229674
0.8107401547
0.7946660522
0.7978572518
0.7978460036
0.8154950234
0.8260896780
0.8117787838
0.7995006959
0.7921127631
0.9206253927
0.7948049477
0.8030644313
0.9020459153
0.8003406775
0.7955266300
0.8059842394
0.7984410849
0.7938448094
0.8296235105
0.9418181236
0.8072843329
0.8623498872
0.8209987509
0.8070687410
0.8051105720
0.7935249842
0.8059636395
0.9362577208
0.8338358106
0.9066213567
0.8347049501
0.8766430234
0.8126374776
0.8003709412
0.8057359946
0.8401635390
0.9225121350
0.8321431774
0.8842774586
0.8227506449
0.8571764319
0.8160685049
0.8053609769
0.8009677611
0.8731843636
0.9359322353
0.9225521070
0.9184418848
0.8309687111
0.9153475760
0.8334679323
0.7940091853
0.7973044196
0.8270456765
0.9133505016
0.8083310141
0.9028877077
0.7995844364
0.8098497940
0.7995297090
0.9326076660
0.9205737269
0.8914294361
0.8962116551
0.7967105099
0.8176656130
0.9136668713
0.7915182998
0.7935720565
0.8831410276
0.8998948792
0.8489324528
0.8707303170
0.8043883652
0.9388651408
0.8198106472
0.7958177419
0.9133487781
0.8436304829
0.7918592741
0.8842788209
0.8117079512
0.9359324373
0.7922596352
0.8048657377
0.9349026971
0.8848019855
0.8436302732
0.7956417776
0.7994425312
0.8214437685
0.9062530916
0.7953712894
0.9121220481
0.7931176682
0.8198899314
0.8457870922
0.7956710392
0.9066231831
0.7929921467
0.9216822707
0.9225117095
0.8470323790
0.9326065513
0.8962133077
0.9388669618
0.8198904646
0.8309666681
0.8577135396
0.8931274076
0.9379269896
0.8772738810
0.8963512269
0.9156243543
0.8571781767
0.8679832955
0.8994918882
0.8084632258
0.8857255001
0.9148705088
0.8265476544
0.9313453472
0.8175586141
0.8332814297
0.9048699241
0.8017770860
0.8080068109
0.8590773214
0.9093877994
0.8051140009
0.9153484979
0.8365038392
0.8155140480
0.8707319489
0.8003770269
0.7932199352
0.8296351175
0.8722227052
0.7956331542
0.7923486172
0.7931069609
0.8026163191
0.9307465260
0.8137615375
0.8049587089
0.7918591188
0.8555346636
0.8910827300
0.8060089663
0.7915182410
0.9088126197
0.7996871535
0.9165816446
0.8260894644
0.8105805555
0.8003396183
0.9008599237
0.8281598364
0.8490304283
0.8921484509
0.8363573294
0.8967888021
0.8072793641
0.8431438941
0.9339924637
0.7998576138
0.8624451740
0.8296048187
0.8680186805
0.7992585833
0.9009224065
0.8024054116
0.8904237706
0.8669626326
0.7948725236
0.8199877053
0.9047427095
0.8759799806
0.9223246405
0.7934274173
0.9038557879
0.8049586065
0.9094864526
0.7934413534
0.9216828037
0.8722230422
0.8457857626
0.9062535151
0.8099089358
0.8097781161
0.9269192443
0.9349035625
0.8800182100
0.9035747008
0.7932166817
0.9313454651
0.8952722563
0.8669629750
0.9017893416
0.8899866286
0.8332792967
0.8848014738
0.8590775080
0.9148713694
0.7913866667
0.7937231016
0.7915693090
0.7958861669
0.9379292031
0.8756197832
0.8570572383
0.8508003319
0.8009833730
0.7916727881
0.8265480281
0.8839004318
0.7964877211
0.9046307600
0.8856838629
0.9274496902
0.9120748394
0.9044795839
0.8628064373
0.8388917090
0.8963507694
0.7911272496
0.8957096691
0.9307002293
0.9182894460
0.7919901958
0.7920612232
0.7946978419
0.7914119569
0.9042586873
0.8746335277
0.9233646515
0.9045470642
0.7961637745
0.7960901472
0.8470328486
0.8833969184
0.8572702332
0.8988238864
0.7914142381
0.9003728880
0.8963415449
0.7948215429
0.7943579056
0.8711928222
0.8790646271
0.7922013182
0.8859699941
0.8902033065
0.9031494758
0.7930942203
0.7947921747
0.7936024047
0.8925196238
0.8979359798
0.9033919427
0.9032883853
0.9001348952
0.7929197327
0.7936973745
0.7918153065
0.7924464779
0.9052767282
0.7943089756
0.7938769157
0.9047966414
0.7937212416
0.7934988145
0.9047474782
0.7949236682
0.8857272506
0.7937682658
0.9047647250
0.8998748431
0.7957555223
0.9038601076
0.7948140430
0.7950996231
0.9093917248
0.7947977343
0.9091309229
0.9080633737
0.7952192582
0.7973063721
0.9192880171
0.9174204297
0.9162741067
0.9163369036
0.9174915201
0.9170060952
0.9130291438
0.9236880660
0.9241455962
0.9099578333
0.9116028323
0.9075068641
0.9100038915
0.9193928583
0.9259126614
0.9153756027
0.9310226197
0.9241822776
0.9170319421
0.9294053284
0.9321056437
0.9204897426
0.9088137676
0.9225340577
0.9301714782
0.9313303179
0.9114454537
0.9260385615
0.9352313849
0.9197339025
0.9329415440
0.9277818075
0.9267295692
0.9049436507
0.9284678293
0.9200730131
0.9310480958
0.9272591115
0.9294490825
0.9072267612
0.9242720431
0.9134649072
0.9207756969
0.8989861261
0.8797485428
0.9158577139
0.9309274375
0.9159690938
0.8747530655
0.9114574487
0.9313556083
0.9052327003
0.9283030767
0.9242211471
0.9049576297
0.9136634421
0.8753547127
0.9249386003
0.8942042557
0.9278282284
0.9013703267
0.9201635371
0.9197491663
0.8708136514
0.8774261135
0.9284952483
0.8960253999
0.8967083568
0.9088639468
0.8773756604
0.9016325265
0.9063944715
0.8857059690
0.8863792714
0.9150815858
0.8861848683
0.9338383610
0.8798636776
0.8789667343
0.8804263879
0.9208312949
0.9005160627
0.8753541924
0.8468594076
0.8510998800
0.9198320544
0.8942145654
0.8887744057
0.8708523424
0.8976199638
0.8932611393
0.9087269314
0.8771250890
0.8824620345
0.8516718893
0.8493347830
0.8719803620
0.8903679297
0.8918893299
0.8789762477
0.8717148611
0.8684475582
0.9010535441
0.8574292529
0.8643069067
0.8839620599
0.9023594608
0.8688107197
0.8880765889
0.8929945957
0.8861934572
0.8650121783
0.8804296530
0.8789172896
0.8699132603
0.8657744236
0.8584151326
0.8626382960
0.8865099212
0.9030675280
0.8656572301
0.8859885118
0.9338642550
0.8686729430
0.8887898006
0.8771287008
0.8614596113
0.8720038498
0.8488796116
0.8732625665
0.8436025367
0.8486149823
0.8927183994
0.8510852911
0.8855359246
0.8588876756
0.8463329126
0.8669926238
0.8468384233
0.8459534646
0.8649587148
0.8663925492
0.9031986781
0.8626973515
0.8583916436
0.8669235193
0.8693646354
0.8642992920
0.8649736590
0.8960818400
0.8717146858
0.8859924367
0.8734301723
0.8845910126
0.8660350646
0.8688093189
0.8650148113
0.9101031766
0.8605826047
0.8626477217
0.8881920529
0.8591135015
0.8684446016
0.8647232026
0.8585790470
0.8698804120
0.8931278060
0.8617037425
0.8488598261
0.8729154700
0.8667893958
0.8669932833
0.8800804384
0.8732605196
0.8625145170
0.8403173827
0.8608982790
0.8464185982
0.8633868747
0.8484077417
0.8427135256
0.8766294462
0.8716042561
0.8632069364
0.8541812730
0.8677939370
0.8435967686
0.8604268601
0.8392853613
0.8615143922
0.8493662416
0.8605923932
0.8625436205
0.8465004761
0.8626959001
0.8626404502
0.8585099510
0.8734298084
0.8579310438
0.8411873735
0.8693617175
0.8621844890
0.8961907839
0.8579052196
0.8650482331
0.8436105934
0.8520646040
0.8660317636
0.8608927815
0.8493420461
0.8576598369
0.8632065417
0.8525929816
0.8433574408
0.8579308087
0.8766326748
0.9380736366
0.8677900467
0.8464149851
0.8729729775
0.8653236915
0.8604384963
0.8483614599
0.8617913248
0.8519901349
0.8733141241
0.8403225990
0.9374152204
0.8423129653
0.8801796712
0.8578943907
0.8431760411
0.8401158216
0.9371910705
0.8506843450
0.8580660071
0.8557376483
0.8587827602
0.8499316145
0.8445862248
0.8536271768
0.8470472321
0.8584827913
0.8533633989
0.8706480464
0.8553297032
0.8530193230
0.8411901871
0.8542875597
0.8496062507
0.8516582783
0.8373607683
0.8576601372
0.9380881273
0.8579090600
0.8526667400
0.9356200987
0.8568141806
0.8543068819
0.9374581103
0.8405315662
0.8455146552
0.8364375340
0.9383013282
0.8543648179
0.9372063992
0.8536077499
0.8554707141
0.8494100983
0.9354741884
0.8706503081
0.8557246960
0.8507667336
0.9396314407
0.8401168644
0.8562065482
0.9420562688
0.8558705451
0.8580575771
0.8588913209
0.8533403988
0.8409469941
0.9384534671
0.8500949065
0.8337082937
0.8563139967
0.8516380408
0.8526457580
0.9400798855
0.8567580742
0.8508833031
0.8603237038
0.8526476231
0.8373888126
0.8565394985
0.9369098190
0.8590317746
0.8540277103
0.9337109515
0.9385802127
0.8546582133
0.8613689915
0.9354917704
0.9420586356
0.9313546176
0.9411749769
0.8543544142
0.8528877348
0.9384583664
0.9424319741
0.8502237476
0.8348153988
0.8364543991
0.9406798732
0.8576505449
0.9245275138
0.9397123644
0.8442000161
0.8569794146
0.9331716557
0.9350547221
0.8585847547
0.8529937888
0.9417645641
0.8522346860
0.8603143817
0.9373081504
0.8580463347
0.8545308782
0.8326370912
0.8508545482
0.8555845714
0.8560983967
0.8538303906
0.9310150626
0.9403108105
0.8610867693
0.9337238569
0.8337484066
0.9400841323
0.8563033530
0.8501519558
0.8590220565
0.8525553615
0.8596673004
0.8567419891
0.8551727212
0.9409077019
0.8515701562
0.9454973714
0.8347716891
0.9397192064
0.9424392455
0.8513013502
0.8535187338
0.8531201397
0.9200074234
0.8518876400
0.9323849790
0.9436164364
0.8502166938
0.9331854364
0.8348400642
0.9449617015
0.9428216852
0.8537728460
0.8585756021
0.9155226567
0.8599615239
0.9274095275
0.8528782894
0.9444014122
0.9448686181
0.8540492009
0.8547868646
0.9403179354
0.8315186264
0.8545207097
0.9365084400
0.9310280976
0.8326702767
0.9456781004
0.8555688872
0.8534436452
0.9407831588
0.8596581320
0.8962303614
0.8345820061
0.8536192523
0.9095667545
0.9444149001
0.8512813618
0.8495995103
0.9449727490
0.8531135108
0.8599531589
0.8510173044
0.9459910605
0.8535094836
0.8348048776
0.9438512141
0.8531658411
0.8583045251
0.9432103877
0.8518321566
0.8808298049
0.8496703270
0.9452968912
0.8326221357
0.8523719263
0.9454184489
0.9477433829
0.9036843467
0.8518287877
0.8315623663
0.9439353398
0.9480517649
0.9365197130
0.8655273142
0.8518520754
0.8533234819
0.9434337319
0.9460058084
0.9438633150
0.9468278724
0.8496630867
0.8510048879
0.9448336960
0.8486762350
0.8890051205
0.8582967963
0.8534560933
0.8346308085
0.9474571578
0.9477141447
0.8479218298
0.9445456624
0.8500729397
0.8732959518
0.8499547705
0.8523658542
0.9479534015
0.8518457920
0.8507337224
0.8506249277
0.8374215371
0.9475167297
0.8525904826
0.8364447931
0.9451342995
0.9275603863
0.9419470999
0.9368992374
0.8572772084
0.9477263885
0.8427651708
0.9464253446
0.9094902382
0.9415430071
0.9434406875
0.8656768657
0.9468919372
0.9473031674
0.8486553135
0.9426258391
0.9469233960
0.9330755739
0.9402993132
0.8498288633
0.9197489252
0.9430927445
0.8817055569
0.9474695506
0.9472304917
0.9448430875
0.8483957233
0.8354293351
0.8424340177
0.8507282041
0.8387838536
0.8966172428
0.8506194847
0.8302492832
0.8250759460
0.8455453062
0.8445898223
0.8467723067
0.8242704512
0.8295353283
0.8420999048
0.8494607820
0.8346499290
0.8234344551
0.8465549796
0.8455290468
0.8449999836
0.8265428590
0.8736945503
0.9230539241
0.9399133257
0.9463104552
0.9029588723
0.8587326277
0.9415423735
0.8427928135
0.9419502549
0.9459207073
0.8361210051
0.9345798062
0.9435631516
0.9464375646
0.9148953111
0.9385940397
0.9302066123
0.9456320706
0.8892617120
0.9296971971
0.9413877097
0.9473147551
0.9141746479
0.8745115809
0.9438147817
0.8579395849
0.8434542908
0.9383326596
0.9462604366
0.9237053945
0.9402986193
0.9349097191
0.9469339023
0.8377681307
0.8895637968
0.8298043358
0.8185047581
0.8165362869
0.8227241669
0.8262157573
0.8454835554
0.8469847193
0.8421074346
0.8296541494
0.8481824268
0.8431504441
0.8322109921
0.8394115299
0.9033279124
0.8483911891
0.8442507132
0.8300439316
0.8337044211
0.8235115970
0.8160902228
0.8188708540
0.8274629371
0.8267860423
0.8460326302
0.8467448175
0.8431656392
0.8354440323
0.8474761105
0.8413534620
0.8363473831
0.8414752219
0.8414292862
0.8276385337
0.9178616767
0.9376859916
0.9445961416
0.9459304434
0.9416424805
0.9266753050
0.8664244335
0.8305839811
0.9312774805
0.8361332847
0.9365363273
0.8963923028
0.8528019646
0.9090420891
0.9399099510
0.9254974089
0.9391637803
0.9462694759
0.9451101503
0.9323366965
0.8821288700
0.8382364788
0.9357040049
0.8506572073
0.9383285200
0.9081333188
0.8679324559
0.9190305064
0.9425609538
0.8133661732
0.8227109078
0.8097193788
0.8451644568
0.8232817580
0.8335956338
0.8312198889
0.8827836226
0.8391462477
0.8414268458
0.8386755188
0.8380836026
0.8255003600
0.8966029772
0.8152716168
0.8185611526
0.8250287196
0.8435538618
0.8102913719
0.8198543792
0.8116263133
0.8443720103
0.8298048585
0.8361351540
0.8267707324
0.8355488401
0.8417401278
0.8370478893
0.8392506326
0.8191677855
0.8199432027
0.8194358536
0.8298001697
0.8431015318
0.8199005708
0.7977788363
0.8267495726
0.8043187596
0.9223029628
0.9376814784
0.8222356386
0.8143805414
0.8901028344
0.7985174932
0.8478017416
0.9028065062
0.7986777514
0.8132202225
0.8200632685
0.9431706959
0.8595793630
0.8305857671
0.9271943071
0.9122437189
0.9338668905
0.8058166640
0.8099195426
0.7978541113
0.9391477704
0.7948687764
0.8063167509
0.9348219717
0.8208619663
0.7998815635
0.8338358597
0.8035853750
0.9289171203
0.9407279049
0.8238803081
0.8137584769
0.9020409871
0.7957407648
0.8623447544
0.9136396493
0.7992651896
0.8126391805
0.8214374752
0.9451174234
0.8753239782
0.8444616239
0.9322733921
0.9206269730
0.9356987975
0.8105433578
0.8050321782
0.7982625836
0.9434953250
0.7962859197
0.8105441907
0.9362604708
0.8761023318
0.8334553621
0.8219353792
0.8241030060
0.8368872550
0.8333989186
0.8082908053
0.8398354935
0.9225506147
0.9211667269
0.9045069231
0.8270491776
0.9028861300
0.8587405802
0.8098561493
0.8360962680
0.8182664361
0.8529903072
0.8332059071
0.8303256399
0.8416263004
0.8766379201
0.8176259950
0.8899010802
0.8120190879
0.8152833644
0.8791057588
0.8043811501
0.8831411745
0.8346972005
0.8160758100
0.8193307015
0.8296041344
0.8321476943
0.8125872309
0.8386458879
0.9257475736
0.9243831963
0.9068631196
0.8303075163
0.9000701697
0.8512719112
0.8057377672
0.8364865810
0.8254962133
0.8624457564
0.8289419076
0.8401631369
0.8407052823
0.8227263457
0.8136614831
0.8126452754
0.8731850703
0.8053378684
0.8041584395
0.7971787617
0.8146431794
0.8273713351
0.8048685975
0.7985170122
0.7956450067
0.7924272958
0.9172811192
0.8237283970
0.7924844007
0.8238987694
0.8237282958
0.8097050120
0.8966244910
0.8079384779
0.8025858996
0.8099219075
0.7980253251
0.8185971643
0.7978957391
0.9304380120
0.8171096091
0.8200673855
0.8055282322
0.8017738962
0.8079221701
0.7956693868
0.8314271718
0.9410844058
0.8119118494
0.8063240671
0.8539952222
0.8126597621
0.8119689698
0.8084595217
0.8080027340
0.7980231707
0.7929921137
0.8105500948
0.7986833534
0.8143834275
0.8031192790
0.9348182849
0.8267469264
0.7948684902
0.8002057116
0.8163025254
0.8007558530
0.8000922390
0.8196123937
0.8029820061
0.8298820461
0.8097169337
0.8032888643
0.7979579135
0.7918852749
0.9247390588
0.8222420398
0.7936204822
0.8235567887
0.8048838305
0.9078926983
0.8087798199
0.8013409765
0.8180878119
0.8180876043
0.7943668918
0.9322696532
0.8170328936
0.8175318945
0.8097333903
0.8010675035
0.7952449432
0.8326786277
0.9435005771
0.8059293432
0.7946665716
0.8021866144
0.8688582142
0.8185961463
0.8099050699
0.8083081397
0.7968499876
0.7931882270
0.8122407466
0.7962879033
0.8105521695
0.8030635060
0.9382836171
0.8395768972
0.7957387079
0.8005062362
0.9118972589
0.8374605976
0.7934255909
0.7992555694
0.8302923174
0.8832523309
0.9184441922
0.8167908367
0.9000714205
0.7956336736
0.8026191939
0.8064672896
0.8376606747
0.7998549493
0.9312476589
0.9211683621
0.9263178335
0.8351163366
0.8880647787
0.8904219571
0.7964848881
0.8265995114
0.9125532278
0.7912581294
0.7953155918
0.8761009138
0.9071944913
0.8413417020
0.8413411853
0.8635407052
0.8144098408
0.8084277459
0.8036071500
0.8714380940
0.8477482496
0.9383637562
0.9260700010
0.8137655716
0.7982239286
0.9172543036
0.9087625487
0.8359307283
0.9176203307
0.7916700240
0.9199707367
0.8363826271
0.7948699720
0.7991237419
0.8304865992
0.9173481671
0.8120982733
0.9068649221
0.7980601736
0.8092148731
0.8477483837
0.8009809058
0.9351665283
0.9243838589
0.9281406975
0.8333716073
0.8921477855
0.9020239863
0.7981577339
0.8218560472
0.9172571644
0.7910943898
0.7947043676
0.8818958412
0.9045076514
0.8512718443
0.8866444409
0.8773475051
0.8219326424
0.8064481922
0.8027625588
0.8791058520
0.9410903898
0.9257480174
0.9115382352
0.8239663226
0.7945842396
0.9221460247
0.9125505215
0.8493818008
0.7913434999
0.8394262129
0.9312459383
0.8904231761
0.8097050709
0.9383647028
0.7924852148
0.8117779632
0.8239631807
0.8672995091
0.8030787487
0.8972007314
0.9319921580
0.8843624411
0.8114642649
0.8787815875
0.7946895599
0.9163680755
0.8493837993
0.8609011904
0.7946886772
0.7982644842
0.7978870300
0.8965102242
0.8171036611
0.8238923979
0.8117077572
0.8105415102
0.8114677285
0.8806342423
0.9007090270
0.7971813564
0.8126506483
0.8197215941
0.9130249727
0.8041608211
0.9270388873
0.7924269164
0.7948633718
0.8177133119
0.8264916893
0.8107359407
0.8220937714
0.9058797808
0.8255586891
0.8005558721
0.8050372356
0.7977465973
0.8051258185
0.8408273760
0.9082659882
0.7977493604
0.8047500075
0.9118984627
0.8467590588
0.7933402510
0.9174411224
0.9263168736
0.8070058180
0.8496019019
0.9351654591
0.9020254682
0.8175994969
0.9410937813
0.7918853358
0.8177135916
0.7931180400
0.8359294021
0.8600532040
0.7994998244
0.8940048398
0.9351385163
0.8790630597
0.8904169092
0.9144891923
0.8635439382
0.8699705777
0.7998017575
0.7935245581
0.8030575423
0.8998711694
0.8179805586
0.7953692655
0.8105537315
0.8870789440
0.9099411570
0.7948068341
0.8287869190
0.9112617425
0.9282827581
0.7943663415
0.8051220350
0.8175991448
0.8196724759
0.8290074541
0.9047608060
0.8000955997
0.8059677001
0.8534161509
0.9088466281
0.7984433951
0.8031227062
0.9199709761
0.8387847093
0.7938456786
0.9234660282
0.9281393688
0.8196461782
0.8773493234