<VTKFile type="UnstructuredGrid" version="0.1">
	<UnstructuredGrid>
		<Piece NumberOfPoints="1862" NumberOfCells="3498">
			<CellData>
				<DataArray type="Int32" Name="type" NumberOfComponents="1" Format="ascii">
0
0
0
0
0
0
0
0
0
0
0
0
0
0
0
0
1
0
0
1
0
0
0
0
0
0
0
0
0
0
0
0
0
1
0
0
0
0
0
0
0
0
0
0
0
0
0
0
0
0
1
0
0
0
0
0
0
0
0
0
0
1
0
0
0
0
0
0
0
0
0
0
0
0
0
0
0
0
0
0
0
0
0
0
0
0
0
0
0
0
0
0
0
0
0
0
0
0
0
0
0
0
0
0
0
0
0
0
0
0
0
0
0
0
0
0
0
0
0
0
0
0
0
1
0
0
0
0
0
0
0
0
0
0
0
0
0
0
0
0
0
0
0
0
0
0
0
0
0
0
0
1
0
1
1
0
0
0
0
0
0
0
0
0
0
0
0
0
1
0
1
0
0
0
0
1
0
0
0
0
0
0
0
0
1
1
0
0
0
0
0
1
0
0
0
0
0
0
0
0
1
0
0
0
0
0
0
0
0
0
0
0
0
0
0
0
0
0
0
0
0
0
0
0
0
0
0
0
0
0
0
0
0
1
0
0
0
0
0
0
0
0
0
0
0
0
0
0
0
0
0
0
0
0
0
0
0
0
0
0
0
0
0
0
0
0
0
0
0
0
0
0
0
0
0
0
0
0
0
0
0
1
0
0
0
0
0
0
0
0
0
0
0
0
0
0
0
0
0
0
0
0
0
0
0
0
0
0
0
0
0
0
0
0
0
0
0
0
0
0
0
0
0
0
0
0
0
0
0
0
0
0
1
0
0
0
0
0
0
0
0
0
0
0
0
0
0
0
0
0
0
0
0
0
0
0
0
0
0
0
0
0
0
0
0
0
0
0
0
0
0
0
0
0
0
0
0
0
0
0
0
0
0
0
0
0
0
0
0
0
1
0
0
0
0
0
0
0
0
0
0
0
0
0
0
0
0
0
0
0
0
0
0
0
0
0
0
0
0
0
0
0
0
0
0
0
0
0
0
0
0
0
0
0
0
0
0
0
0
0
0
0
0
0
0
0
0
0
0
0
0
0
0
0
0
0
0
0
0
0
0
0
0
0
0
0
0
0
0
0
0
0
0
0
0
0
0
0
0
0
0
0
0
0
0
0
0
0
0
0
0
0
0
0
0
0
0
0
0
0
0
0
0
0
0
0
0
0
0
0
0
0
0
0
0
0
0
0
0
0
0
0
0
1
0
0
0
0
0
0
0
0
0
0
0
0
0
0
0
0
0
0
0
1
0
0
0
0
0
0
0
0
0
0
0
0
0
0
0
0
0
0
0
0
0
0
0
0
0
0
0
0
0
0
0
0
0
0
0
0
0
0
0
0
0
0
0
0
0
0
0
0
0
0
0
0
0
1
0
0
0
0
0
0
0
0
0
0
0
0
0
0
0
0
0
0
0
0
0
0
0
1
0
0
0
0
0
0
0
0
0
0
0
0
0
0
0
0
0
0
0
1
0
0
0
1
0
0
0
0
0
0
0
0
0
0
0
0
0
0
0
0
0
0
0
0
0
0
0
0
0
1
0
0
0
0
0
0
0
1
0
0
0
0
0
0
0
0
0
0
0
0
0
0
0
0
0
0
0
0
0
0
0
0
0
0
1
0
0
0
0
0
0
0
1
0
0
0
0
0
0
1
0
0
0
0
0
0
0
0
0
0
0
0
0
0
0
0
0
0
0
0
0
0
0
0
0
0
0
0
0
0
0
0
0
0
0
0
0
0
1
0
0
0
0
0
1
0
0
0
0
0
0
0
1
0
0
0
0
0
0
0
0
0
0
0
0
0
1
0
0
0
0
0
0
0
0
0
0
0
0
0
0
0
0
0
0
0
0
0
0
0
0
0
0
0
0
0
0
0
0
0
0
0
0
0
0
0
0
0
0
0
0
0
0
0
0
0
0
0
0
0
1
0
0
0
0
0
0
0
0
0
0
0
0
0
0
0
0
0
0
0
1
0
0
0
0
0
0
0
0
0
1
0
0
0
0
0
0
0
0
0
0
0
0
0
0
0
0
0
0
0
0
0
0
0
0
0
0
0
0
0
1
0
1
0
0
0
0
0
0
0
0
0
0
0
0
0
0
0
0
0
0
0
0
0
0
0
0
0
0
0
1
0
0
0
1
0
0
0
0
0
0
0
0
0
0
0
0
0
0
0
0
0
0
0
0
0
0
0
0
0
0
0
0
1
0
0
0
0
0
0
0
0
0
0
0
0
0
0
0
0
0
0
0
0
0
0
0
0
0
1
0
0
0
0
0
0
0
0
0
0
0
0
0
0
0
0
0
0
0
0
0
0
0
1
0
0
0
0
0
0
1
0
0
0
0
0
0
0
0
0
0
0
1
0
0
0
0
0
0
0
0
0
0
0
0
0
0
0
0
0
0
0
0
1
0
0
0
0
0
0
0
0
0
0
0
1
0
0
0
0
0
0
0
0
0
0
0
0
0
0
0
0
0
0
0
0
0
1
0
0
0
0
0
0
0
0
0
1
1
0
1
0
1
0
0
0
0
0
0
0
0
0
0
0
1
0
0
0
0
0
1
1
0
0
0
0
0
0
1
0
0
0
0
0
1
1
1
0
0
0
0
0
0
0
0
0
0
0
0
1
1
0
0
1
0
0
0
0
0
1
0
0
0
1
0
1
0
0
0
0
0
0
0
1
0
0
0
0
0
0
0
1
0
0
1
0
0
0
0
0
0
0
0
0
0
0
0
0
0
0
1
0
0
0
0
0
0
0
0
0
0
0
0
0
0
0
0
0
0
0
0
0
0
0
0
0
0
0
0
0
0
0
0
0
0
0
0
1
0
0
0
0
0
0
1
0
0
0
1
0
0
0
0
0
0
0
0
0
0
0
1
0
0
0
0
0
0
0
0
0
0
0
0
0
0
0
0
0
0
0
0
0
0
0
0
0
0
0
0
0
0
0
0
0
0
0
0
0
0
0
0
1
1
0
0
0
0
0
0
0
0
0
0
0
0
0
1
0
0
0
0
0
0
0
0
0
0
0
0
0
0
0
0
0
0
0
0
0
0
0
0
0
0
0
0
0
0
0
0
0
0
0
0
0
0
0
0
0
0
0
0
0
0
0
0
0
0
0
0
0
0
0
0
0
0
0
0
0
0
0
0
0
0
0
0
0
0
0
0
1
1
0
0
0
0
0
0
0
0
1
0
0
0
0
0
0
0
0
0
0
0
0
0
0
0
0
0
0
0
0
0
0
0
1
0
0
0
0
0
0
0
0
0
0
0
0
0
0
0
0
1
0
0
0
0
0
0
0
0
0
0
0
0
0
0
0
0
0
0
0
0
0
0
0
0
0
0
0
0
0
0
0
0
0
0
0
0
0
0
0
0
0
0
0
0
0
0
0
0
0
0
0
0
0
0
0
0
0
0
0
0
0
0
0
0
0
0
0
0
0
0
0
0
0
0
0
0
0
0
0
0
0
0
0
0
0
0
0
0
0
0
1
1
0
0
0
0
0
1
0
0
0
0
0
0
0
0
0
0
0
0
1
0
0
0
0
0
0
0
0
0
0
0
0
0
0
0
0
0
0
0
0
0
0
0
0
0
0
0
0
0
0
0
0
0
0
0
0
0
0
0
0
0
0
0
0
0
0
0
0
0
0
0
0
0
1
0
1
0
0
0
0
0
0
0
0
0
0
0
0
0
0
0
0
0
0
1
0
0
0
0
0
0
0
0
0
0
0
0
0
0
0
0
0
0
0
0
0
0
0
0
0
0
0
0
0
0
0
0
0
0
0
0
0
0
0
0
0
0
0
0
0
0
0
0
0
0
0
0
0
0
0
0
0
0
0
0
0
0
0
0
0
0
0
0
0
0
1
0
0
0
0
0
0
0
0
0
0
1
0
0
0
0
0
0
0
0
0
0
0
0
0
0
0
0
0
0
0
0
0
0
0
0
0
0
0
0
0
0
0
0
0
0
0
0
0
1
0
0
0
0
0
0
0
0
0
0
0
0
0
0
0
0
0
0
0
0
0
0
0
0
0
0
0
0
0
0
0
0
0
0
0
0
0
0
0
0
0
0
0
0
0
0
0
0
0
0
0
0
0
0
0
0
0
0
0
0
0
0
0
0
0
0
0
0
0
0
0
0
0
0
0
0
0
0
0
0
0
1
0
0
0
0
0
0
0
0
0
0
0
0
0
0
0
0
0
0
0
0
0
0
0
0
0
0
0
0
0
0
0
0
0
0
0
0
0
0
0
0
0
0
0
0
0
0
0
0
0
0
0
0
0
0
0
0
0
0
0
0
0
0
0
0
0
0
0
0
0
0
0
0
0
0
0
0
0
0
0
0
0
0
0
0
0
0
0
0
0
0
0
0
0
0
0
0
0
0
0
0
0
0
0
0
0
0
0
0
0
0
0
0
0
0
0
0
0
0
0
0
0
0
0
1
0
0
0
0
0
0
0
0
0
0
0
0
0
0
0
0
0
0
0
0
0
0
0
0
0
0
0
0
0
0
0
0
0
0
0
0
0
0
0
0
0
0
0
0
0
0
0
0
0
0
0
0
0
0
0
0
0
0
0
0
0
0
0
0
0
0
0
0
0
0
0
0
0
0
0
0
0
0
0
0
0
1
0
0
0
0
0
0
0
1
0
0
0
0
0
0
0
0
0
0
0
0
0
0
0
0
0
0
0
0
0
0
0
0
0
0
0
0
0
0
0
0
0
0
0
0
0
1
0
0
0
0
0
0
0
0
0
0
0
0
0
0
0
0
0
0
0
0
0
1
0
0
0
0
0
0
0
0
0
0
0
0
1
1
0
0
0
0
0
0
0
0
0
0
0
0
0
0
0
1
1
0
1
0
0
0
0
0
0
0
0
0
1
0
0
0
0
0
0
1
0
0
0
0
0
0
0
0
0
0
1
0
0
0
0
1
0
1
0
0
0
0
0
0
0
1
0
0
0
1
0
0
0
1
0
1
1
0
0
1
1
0
0
0
1
0
0
0
1
0
0
0
0
0
0
0
0
0
1
0
0
0
0
0
0
1
0
0
0
0
0
0
0
0
0
0
0
0
0
0
0
0
0
0
0
0
0
0
0
0
0
0
0
1
0
0
1
0
0
0
0
0
0
0
0
0
0
0
0
0
0
0
0
0
0
1
0
0
1
0
0
0
0
0
0
0
0
0
0
0
1
0
0
1
0
0
0
0
0
0
0
0
0
0
0
1
1
0
0
0
0
0
0
0
0
0
0
0
0
1
0
0
0
0
0
0
0
0
0
0
0
0
0
0
0
0
0
1
0
0
0
0
0
0
0
0
0
0
0
0
0
0
0
0
0
1
0
0
0
0
0
0
0
0
0
0
0
0
0
0
0
0
0
0
0
0
0
0
0
0
0
0
0
0
0
0
0
0
0
0
0
0
0
0
0
0
1
0
0
0
0
0
0
0
0
0
0
0
0
0
0
0
0
0
0
0
0
0
0
0
0
0
0
0
0
0
0
0
0
0
0
0
0
0
0
0
0
0
0
0
0
0
1
0
0
0
0
0
0
0
0
0
0
0
0
0
0
0
0
0
0
0
0
0
0
0
0
0
0
0
0
0
0
0
0
0
0
0
0
0
0
0
0
0
0
0
0
0
0
0
1
0
0
0
0
0
0
0
0
0
0
1
0
0
0
0
0
0
0
0
0
0
0
0
0
0
0
1
0
0
1
0
0
0
0
0
0
0
0
0
0
0
0
0
0
0
0
0
0
0
0
0
0
0
1
0
0
0
0
0
0
0
0
0
0
0
0
0
0
0
0
0
0
0
0
0
0
0
0
0
0
0
0
0
0
0
0
0
0
0
1
0
0
0
0
0
0
0
0
0
0
0
0
0
0
0
0
0
0
0
0
0
0
0
0
0
0
0
0
0
0
0
0
0
0
0
0
0
0
0
0
0
0
0
0
0
0
0
0
0
0
0
0
0
0
0
0
0
0
0
0
0
0
0
0
0
0
0
0
0
0
0
0
0
0
0
0
1
0
0
0
0
0
0
0
0
0
0
0
0
0
0
0
0
0
0
0
0
0
0
0
0
0
0
0
0
0
0
0
0
0
0
0
0
0
0
0
1
0
0
0
0
0
0
0
0
0
0
0
0
1
1
0
0
0
0
0
0
0
0
0
0
0
0
0
0
0
0
0
0
0
0
0
0
0
0
0
0
0
0
0
0
0
0
0
0
0
0
0
0
0
0
0
0
0
0
0
0
0
0
0
0
0
0
0
0
0
0
0
0
0
0
0
0
0
0
0
0
0
0
0
0
0
0
0
0
0
0
0
0
0
0
0
0
0
0
0
0
0
0
0
0
0
0
0
0
0
0
0
0
0
0
0
1
0
1
0
0
0
0
0
0
0
1
1
1
1
0
0
0
0
0
0
0
0
0
0
0
0
0
0
0
0
0
0
0
0
0
0
0
0
0
0
0
0
1
1
0
0
0
0
0
0
0
0
0
0
0
0
0
0
0
0
0
0
1
0
0
0
0
0
0
0
1
1
0
1
1
0
0
1
0
0
0
0
0
0
0
1
0
1
0
0
0
0
0
0
0
0
0
0
0
0
0
0
0
0
0
0
0
0
0
0
0
0
0
0
0
1
1
0
0
0
1
1
0
0
0
0
1
0
0
1
0
1
0
0
0
0
0
1
0
0
0
1
0
0
0
0
0
0
0
0
0
0
0
0
0
0
0
0
0
0
0
0
0
0
0
0
0
0
0
1
0
0
0
0
0
0
1
0
0
0
0
0
0
0
0
0
0
0
0
0
0
0
0
0
0
0
0
0
0
0
0
0
0
0
0
0
1
0
1
0
0
0
0
0
0
0
1
0
0
0
0
0
0
0
0
0
0
0
1
0
0
0
0
0
0
0
0
0
1
0
0
0
0
0
0
0
1
0
0
0
0
0
0
0
1
0
0
0
0
0
0
0
0
0
0
0
0
0
0
0
0
0
0
0
1
0
1
0
0
0
0
0
1
0
0
0
0
0
0
0
0
0
0
0
0
0
0
0
0
0
0
0
0
0
0
0
0
0
1
0
1
0
0
0
0
0
0
0
0
0
1
0
0
0
0
0
1
0
0
0
0
0
0
0
0
0
0
0
0
0
0
0
1
0
0
0
0
0
0
0
0
1
0
0
0
0
0
0
0
0
0
0
0
0
0
0
0
0
0
0
0
0
0
0
0
0
0
0
0
0
0
0
1
0
0
0
0
0
0
0
0
0
0
0
0
0
0
0
0
1
0
0
0
0
0
0
0
0
1
0
0
0
0
0
0
0
0
0
1
0
0
0
0
0
1
0
0
0
0
0
0
0
0
0
0
0
0
0
0
0
0
0
0
0
1
0
0
0
0
0
0
1
0
0
0
0
0
0
0
0
1
0
0
0
0
0
0
0
0
0
0
0
0
0
0
1
0
0
1
0
0
0
1
0
0
0
0
0
0
0
0
0
0
0
0
0
0
0
0
1
0
0
0
0
0
0
0
0
0
0
1
0
1
0
0
0
0
0
0
1
0
0
0
0
0
0
0
0
0
0
0
0
0
0
0
0
0
0
0
0
0
0
0
0
0
0
0
1
1
0
0
0
0
0
0
1
0
0
0
0
0
0
0
0
0
0
0
0
0
1
0
0
0
0
0
0
0
1
0
0
0
0
0
0
0
0
0
0
0
0
0
0
0
0
0
0
0
0
0
0
0
0
0
0
0
1
0
0
0
0
0
0
0
0
0
0
1
0
0
1
0
0
0
0
0
0
0
0
0
0
0
0
0
0
0
0
0
0
0
0
0
0
0
0
0
0
0
0
0
1
0
0
0
0
0
0
0
1
0
0
0
0
0
0
0
1
0
0
0
0
1
0
0
0
0
0
0
0
0
0
0
0
1
0
1
0
0
0
1
0
				</DataArray>
				<DataArray type="Float64" Name="h" NumberOfComponents="1" Format="ascii">
0.8134267224
0.8133436625
0.8208162128
0.8063018982
0.8257970753
0.8214760147
0.8152539876
0.8021031983
0.8128242800
0.7907998274
0.8016757917
0.8160608239
0.8069456882
0.7952432030
0.8055688959
0.8005339358
0.8082135768
0.7950623909
0.8120949105
0.7963593862
0.8254002536
0.8132164378
0.8232910521
0.8322103838
0.8028224569
0.8000150836
0.8232045635
0.8495601204
0.8299319886
0.7906425974
0.7914183944
0.8251532886
0.8121271470
0.8208244370
0.8505607488
0.8366834682
0.8361396376
0.8286187342
0.8487124058
0.8311824876
0.8308380519
0.8505877739
0.8247160050
0.8349963031
0.8371718719
0.8454189641
0.8306989366
0.8549101760
0.8878506213
0.8828111044
0.8337340109
0.8410536702
0.8359299589
0.8650053372
0.8472793775
0.8300295331
0.8458326584
0.8628061453
0.8675377754
0.8638626788
0.8742089972
0.8714776357
0.8868228683
0.8419271425
0.8405784238
0.8557010374
0.8769570843
0.8817967982
0.8697803921
0.8660290780
0.8661721765
0.8491072080
0.8332311052
0.8696478070
0.8686563918
0.8513829653
0.8644353043
0.8726544550
0.8598336353
0.8509226700
0.8792272748
0.8589679363
0.8991268378
0.8757569092
0.8476990419
0.8544282019
0.8808067683
0.8691734038
0.8749106607
0.8977328865
0.8838100389
0.8526075769
0.8762737730
0.8939979360
0.8587465976
0.8559618928
0.8634079015
0.8486318606
0.8523501859
0.8818854529
0.8966921155
0.8788073898
0.8641654735
0.8575907702
0.7831797259
0.8717269380
0.8576635185
0.8923599660
0.8740663572
0.8603072842
0.8891067850
0.8938927669
0.8794990696
0.8852052922
0.8699196138
0.8904035975
0.8654319796
0.7855426204
0.8890743197
0.8757019946
0.7825540806
0.8648140434
0.8541132457
0.7720070417
0.8806638069
0.8916528204
0.8707823529
0.7723114547
0.8883311622
0.8911177695
0.8873284018
0.8596256508
0.8760245812
0.8895494118
0.7816796260
0.8888737690
0.7939920481
0.8902083379
0.8837043947
0.8086022003
0.7738788406
0.7749374621
0.8878368578
0.8187520726
0.8555988414
0.8859197977
0.8008465196
0.8931782171
0.7753610748
0.8916533317
0.7904606073
0.8901642704
0.8900618690
0.8889652386
0.8826389318
0.8917408394
0.8908607856
0.7795832220
0.8909622755
0.7675761413
0.8158330906
0.8927942808
0.7982442747
0.7718826397
0.7761583760
0.8936086498
0.8287027218
0.8066652433
0.7676426357
0.8906225835
0.8910943691
0.7652882159
0.8898329168
0.7797806860
0.8345998756
0.8889352601
0.8255302951
0.8966074946
0.8897041726
0.7728411088
0.8928924513
0.8416936092
0.7682464704
0.8552150025
0.7641681383
0.7630059848
0.8373226024
0.8898947377
0.7665896836
0.7623758772
0.8469577965
0.8899528735
0.7650006894
0.8439755217
0.8891557967
0.8965118534
0.7783298364
0.8505660859
0.8486790088
0.8910828879
0.7618519892
0.8569197929
0.7627343670
0.8903075243
0.8529972333
0.7738299167
0.8076767483
0.7917568601
0.8516662679
0.8249500173
0.8463013029
0.7644230589
0.7767512492
0.7733282297
0.7994344128
0.8499079254
0.8157560230
0.7785347670
0.8410088784
0.7687225681
0.8541231067
0.8955554990
0.8341290660
0.8823151792
0.8580768622
0.8963074075
0.9013562494
0.8682280875
0.8554662888
0.8996520460
0.8925290071
0.8895079652
0.8623180435
0.8930100903
0.8988004028
0.8749044247
0.8482331821
0.8146021101
0.7682101269
0.8311131006
0.8479873694
0.7986281437
0.7801606755
0.8309237159
0.7967999027
0.8134891768
0.7776769504
0.8440209040
0.8063161521
0.7853248667
0.8230180663
0.8437709220
0.7830518458
0.8511695929
0.8511040988
0.7796821924
0.8222655682
0.8048999918
0.7733195284
0.8880927251
0.8380705227
0.8589904966
0.8675453838
0.8817136948
0.8605452802
0.9007857622
0.9005237450
0.8551015339
0.8941806630
0.8967580056
0.9051123773
0.8382495381
0.9001262254
0.8725134667
0.8803615363
0.8570016729
0.8623455914
0.8740917764
0.8896162155
0.8570935225
0.9027485218
0.8967614146
0.8979058150
0.9035530528
0.9021579842
0.8950152634
0.8658039802
0.8220546448
0.7845000732
0.7874264562
0.8202840735
0.8493927442
0.8060168082
0.8040492652
0.8354952602
0.8495542562
0.8352554050
0.8141287449
0.7927987381
0.7796728073
0.7870153025
0.8118936710
0.8459178530
0.8531020971
0.8523764795
0.8287203991
0.8459005013
0.8280442009
0.7901648903
0.8618273657
0.8718463371
0.8688110812
0.8982979822
0.8576803193
0.9085302864
0.8877143386
0.8412549804
0.9019708654
0.9056847111
0.8412155831
0.8821232352
0.8614183055
0.8979151877
0.9056052604
0.8645002673
0.8657673146
0.8747779556
0.9023689985
0.8795299072
0.8955656341
0.9059816351
0.9087044218
0.9014117401
0.8602172081
0.8901404939
0.8587817315
0.9043543014
0.8260625631
0.9231969440
0.8389432632
0.8516977492
0.8385440280
0.7920857788
0.8508467918
0.8140071493
0.8277011397
0.8113316614
0.7952952342
0.9241584437
0.8853662555
0.8556634342
0.9017614477
0.8188084552
0.7978598277
0.9305788575
0.8336075120
0.8969275304
0.8480315594
0.8326915654
0.9145031662
0.9139570661
0.9270657387
0.7870055887
0.8474172243
0.8544752967
0.8210381333
0.8796102727
0.8889785694
0.8914207099
0.7949927921
0.9048087260
0.9257968590
0.8006683188
0.9113093891
0.8882098711
0.8843258635
0.9105497622
0.8249652783
0.9118244592
0.8666524314
0.8618169757
0.9036383322
0.9030546033
0.8440330743
0.8997401855
0.8434636379
0.8644953053
0.8733229683
0.8724126858
0.8478889292
0.9067888918
0.8654977031
0.8802439337
0.8768454175
0.9139230279
0.8919308709
0.8308244101
0.8375942158
0.8407324024
0.8619223211
0.8689757259
0.9088564188
0.8561759578
0.8963743753
0.8686645364
0.9075098163
0.9067250395
0.8629774250
0.8679726723
0.8517062710
0.8776602384
0.8826181863
0.9018694615
0.8934742098
0.8310719529
0.9258700626
0.9152598411
0.8410167249
0.9074471165
0.8773213952
0.8857652628
0.8762218551
0.8183786184
0.9198634495
0.9309281461
0.8886846367
0.9185044119
0.8000800716
0.9205109071
0.8530227282
0.8883090882
0.9365166646
0.9098787417
0.9299389952
0.9001946443
0.8960663204
0.9419707541
0.9090503622
0.9204713178
0.8907369314
0.9009288571
0.9230563818
0.8248389849
0.9316329981
0.9021387753
0.8365022398
0.8795401798
0.9124228948
0.8947377750
0.9290368434
0.9189409554
0.9140730319
0.7949834632
0.8753542721
0.8490906735
0.8762254829
0.9423843298
0.9367228003
0.9097396897
0.9445831627
0.8056858580
0.8579401989
0.8347026486
0.9083836885
0.8452549561
0.8904111583
0.8835813782
0.8698954159
0.8679048800
0.8245617820
0.9154675940
0.8432768707
0.9057848399
0.8513935193
0.8670873687
0.8770489156
0.9539261877
0.8526155678
0.8080584119
0.8281198984
0.8315789319
0.8622263335
0.8298161802
0.9129154952
0.9591231520
0.9536085501
0.9117726890
0.8346193189
0.8831623045
0.8410937577
0.9113222718
0.8685252498
0.9601442660
0.8132450161
0.8308244085
0.8439652849
0.8391733147
0.9635127923
0.8982702963
0.8359191568
0.9431400766
0.9466687035
0.8490509453
0.8407364214
0.8619220483
0.8471936733
0.8727947738
0.8031885816
0.8698255086
0.9212828070
0.8346173886
0.8562759789
0.9304964330
0.8432793925
0.8942335634
0.8080508905
0.9278810481
0.8962501707
0.8112549111
0.8443996307
0.8562862510
0.9052447573
0.9070376857
0.9261747649
0.8362470611
0.9379142805
0.8402479858
0.9177080104
0.8844140685
0.8572004271
0.9241027809
0.8347028719
0.9139672142
0.8269126009
0.8245580024
0.8679816679
0.8132380953
0.8391748488
0.8031805416
0.8844130551
0.8622382104
0.8626869326
0.8476915473
0.8069566489
0.8543814651
0.8404428592
0.8358498244
0.8514007869
0.8583085105
0.8445515993
0.9439786151
0.8510719830
0.8317460749
0.8823514629
0.8159935386
0.8911375845
0.8632554558
0.8419441733
0.9330310406
0.9386413001
0.8523245209
0.8397587789
0.9367308473
0.8298144974
0.8745078576
0.9090791222
0.8471979788
0.8836005867
0.9287688851
0.9141059452
0.8482436778
0.9178852681
0.9416522048
0.9242195023
0.8773367695
0.8185101228
0.8732598973
0.9041033269
0.9304976909
0.8552436668
0.8432503003
0.8947686447
0.9431420662
0.8446077557
0.9135163971
0.8318794552
0.9204904141
0.9019023092
0.8795552717
0.8504198649
0.9185354218
0.8673357848
0.8457670851
0.8757408083
0.8524941110
0.8753729978
0.8608409147
0.8146433564
0.9601970425
0.8567569132
0.8753684307
0.8507305077
0.9544167975
0.8395705372
0.8887100174
0.8542587723
0.8624311916
0.9571749910
0.9152813472
0.8475433258
0.8595169878
0.8276199609
0.9533148630
0.8486702280
0.9041021628
0.8357842942
0.9310998033
0.8269097016
0.8482464444
0.8572056730
0.8362483258
0.9411142242
0.9000755535
0.8226783261
0.8112489775
0.8469602666
0.8502053242
0.9713757738
0.8159876038
0.8552441539
0.8624313537
0.8516747099
0.8576429370
0.8632623951
0.8444022613
0.8523281510
0.8317454022
0.9594656846
0.9748545691
0.9478059021
0.9224316852
0.8069501587
0.8606481545
0.8659148426
0.8579584201
0.9580635406
0.9482643330
0.8823502862
0.8569276459
0.9596416535
0.8523926315
0.8445708552
0.8222291937
0.8338747281
0.8512924255
0.8528009316
0.8646253610
0.8404452444
0.9518717061
0.8409870243
0.8184637444
0.8301666685
0.9396453149
0.9661024680
0.9764926308
0.9434333477
0.8492228247
0.8485960372
0.8261407798
0.8374484977
0.9710055382
0.9754681823
0.8679807542
0.8591211296
0.8647996525
0.8535385136
0.9619113415
0.8541753577
0.8555802422
0.9892446285
0.9846576097
0.8555859674
0.8549770895
0.9688280609
0.8547637715
0.8565876528
0.8539028762
0.9784872269
0.9854120269
0.9840044013
0.8522884587
0.8498199826
0.8515965885
0.8509153078
0.8527010110
0.9761887029
0.9842320323
0.9552608255
0.9663993929
0.8507673238
0.9900815679
0.9936658808
0.8495622197
0.9748526811
0.9663878169
0.8475494337
0.9961689534
0.8510737792
0.9827417052
0.8444911805
0.8467118656
0.9959173476
0.8486748769
0.9909654144
0.9832077747
0.8397623869
0.9764777590
0.8418765941
0.8449934305
0.9717872664
0.9693108684
0.8333089826
0.8169864278
0.8184887538
0.8184273552
0.8169152210
0.8114526780
0.8160518081
0.8017266253
0.8062448901
0.8253275911
0.8215470379
0.8257379122
0.8252731044
0.8127748128
0.8056105015
0.8152747369
0.7949214173
0.8062108774
0.8114652437
0.8034092578
0.7950783212
0.8062908746
0.8207684956
0.8121883697
0.7906648148
0.8005147825
0.8142367738
0.8021090783
0.7999885379
0.8028721730
0.7907751417
0.8060898804
0.8068807005
0.8269911763
0.8088833611
0.8190935342
0.7949007843
0.7914288643
0.8033602320
0.8208392643
0.8121552880
0.8251986101
0.8196266735
0.8312042632
0.8479457437
0.8081730226
0.8005542367
0.8247870275
0.8487696146
0.8142587305
0.8005153259
0.8308694710
0.7952213837
0.7963389392
0.8269607421
0.8232152469
0.8566635477
0.8131565520
0.8385900823
0.8060429098
0.8253837918
0.8190045073
0.8176084980
0.8532474120
0.8549095444
0.8088864883
0.8372034511
0.8337374232
0.8307966487
0.8495021769
0.8321725961
0.8298840142
0.8458802669
0.8440689717
0.8231527647
0.8424775935
0.7943085248
0.8478877173
0.8515534149
0.8473712664
0.8195905723
0.8360178414
0.8566670639
0.8879895916
0.8819187797
0.8175236261
0.8385796544
0.8439701123
0.8532107299
0.8366470519
0.8406813192
0.8285284707
0.8539738856
0.8505585109
0.8867988600
0.8817591347
0.8539799633
0.8361302113
0.8419590620
0.8515436351
0.8615606666
0.8625963108
0.8348727921
0.8696229791
0.8634265735
0.8491170466
0.8332995265
0.8678907295
0.8417146298
0.8384838647
0.8424680915
0.8730136282
0.8473669999
0.8505719740
0.8644277037
0.8661641967
0.8698028543
0.8686391437
0.8439948393
0.8352528976
0.8697744970
0.8450761021
0.7943233301
0.8660255506
0.8439526765
0.8539769811
0.8542575976
0.8539600926
0.8767045912
0.8575138132
0.8820404326
0.8878754209
0.8409979815
0.8819543248
0.8453464836
0.8589757894
0.8757200523
0.8580886251
0.8880238134
0.8828465090
0.8742123691
0.8714799054
0.8351652033
0.8758958481
0.8698192724
0.8675496020
0.8623044241
0.8634398021
0.8499112615
0.8389452155
0.8615693658
0.8450707839
0.8563027593
0.8472658338
0.8709752120
0.8678938754
0.8730188645
0.8299748042
0.8600934310
0.8681435199
0.8416477724
0.8650159921
0.8626064042
0.8638752214
0.8526282864
0.8628115916
0.8383943391
0.8762687803
0.8767283194
0.8575893172
0.8523934369
0.8580924903
0.8451846303
0.8575185174
0.8788049057
0.8760293116
0.8793097310
0.8709558391
0.8556752358
0.8966895429
0.8769883529
0.8547632241
0.8486747540
0.8775661574
0.8559852757
0.8589004076
0.8820839721
0.8818860011
0.8716964394
0.8542296947
0.8974052856
0.8600947457
0.8740526089
0.8938651630
0.8759013090
0.8681566727
0.8794884039
0.8563075494
0.8513707123
0.8883121388
0.8623163760
0.8726635925
0.8388881101
0.8823489421
0.8498959003
0.8890586051
0.8603205138
0.8709822570
0.8793163632
0.8973937420
0.8642110482
0.8775675048
0.8544151873
0.8648141377
0.8749051624
0.8547618446
0.7896663459
0.8589078647
0.8709704945
0.8476606050
0.8508969595
0.8808069180
0.8991158415
0.8792272083
0.8654321450
0.8598361828
0.8760763672
0.7825642805
0.8691968305
0.8451353581
0.8823475489
0.8596277528
0.8829700202
0.7890764676
0.8916458820
0.8792195408
0.8838949547
0.8749232638
0.8587422369
0.8940350161
0.8918367990
0.8977423744
0.8838110545
0.8905869924
0.8637534823
0.8806405526
0.8707587343
0.8883745363
0.8911267721
0.8641688598
0.8935107417
0.8815875492
0.8642152879
0.7896722505
0.8749230626
0.8859445777
0.7816882613
0.8888786053
0.8760027787
0.7831740057
0.8634294186
0.8556135623
0.8764924357
0.7749446678
0.8809331931
0.7890722391
0.8918272482
0.8852148022
0.8923726695
0.7931161703
0.8637539107
0.8839012919
0.8699345280
0.7753662773
0.8830204910
0.8878469077
0.7699964317
0.8903881351
0.8792341026
0.8859286862
0.8905910135
0.8576711193
0.7776722697
0.8529061096
0.8745528799
0.8904888701
0.8935065925
0.8859616503
0.7856788562
0.8890639603
0.8948733266
0.8839637742
0.8757273367
0.8816724554
0.8901743587
0.7855262608
0.8851580463
0.8890733744
0.7853713994
0.7904626344
0.8900735930
0.8826415017
0.7931311472
0.7699880910
0.8066621651
0.7761627233
0.8809673516
0.8906533765
0.7776656143
0.7711155038
0.8932660919
0.8699684280
0.8765627059
0.7719979671
0.8883213136
0.8158439282
0.7776518730
0.8541006361
0.8873213229
0.7819930399
0.7982445770
0.8871299971
0.8928053288
0.7723046655
0.8909709175
0.8839578523
0.7939910411
0.8895386108
0.8906152776
0.8677022150
0.8948683055
0.8907697055
0.8901945868
0.8898426624
0.7861500165
0.7849711350
0.8837009478
0.7853568033
0.8746288024
0.7856782591
0.8904777600
0.8528918534
0.8851510915
0.8906336602
0.8873031697
0.8890526630
0.8911041337
0.7797847284
0.8916455807
0.7682538984
0.8643106275
0.7776472687
0.7711087790
0.8955982783
0.8905055061
0.8902209177
0.8187238850
0.8931684413
0.8008634044
0.7728470198
0.8932605182
0.7819856513
0.8699986531
0.7715041458
0.7738744661
0.8929061490
0.8871203115
0.8255646943
0.8865771232
0.8086043569
0.8906419500
0.7690986886
0.7665980749
0.8917244995
0.8908509516
0.7849648968
0.8613007429
0.8906035521
0.7780407489
0.7861446793
0.8677488672
0.7641771472
0.8907534144
0.8889530440
0.7795751888
0.8872954900
0.8373622347
0.8586354895
0.8891637330
0.8286544814
0.7690911572
0.8955858387
0.8965229123
0.7714973063
0.8902116513
0.8865706243
0.8945690145
0.7652847055
0.8904940770
0.8643368698
0.7687824843
0.8899602866
0.8889649000
0.7718758247
0.8935951402
0.8440220171
0.8949216633
0.7675684315
0.8569055860
0.8892870283
0.7652798363
0.7627412369
0.8345792442
0.8903130285
0.8613236153
0.7676331968
0.7618583123
0.7780331808
0.8486941353
0.8893505298
0.8896965413
0.7771343120
0.7652769671
0.7687744781
0.7644302165
0.8949151275
0.8945587620
0.7727263815
0.8984488909
0.8416607520
0.8889557931
0.8889269788
0.8586500370
0.7645362168
0.7632729877
0.8966020049
0.7767565314
0.8516714251
0.8469303930
0.8925319159
0.8892798106
0.7623696498
0.8893439565
0.8914095603
0.8904957584
0.8552230044
0.7629987329
0.8898880641
0.8541163850
0.7776840324
0.8134896738
0.7830184417
0.7967987328
0.8505681922
0.7632657997
0.8522934875
0.7674329257
0.8310057143
0.7846222742
0.7771300635
0.8482362902
0.7649929531
0.7661440455
0.8984391902
0.7783262267
0.7704779778
0.8048943638
0.7894953948
0.8511659060
0.8222662078
0.7830558141
0.8440498037
0.7645291460
0.7682179967
0.7727193564
0.8943750169
0.8539020827
0.8529971962
0.8914067258
0.8949486025
0.8382582705
0.8904905232
0.8802559130
0.8570813287
0.8979044488
0.9027399502
0.9008279180
0.8657604734
0.8550863191
0.9000937271
0.8910789953
0.8879949377
0.8605274192
0.8941821645
0.9027749654
0.9007857138
0.8724262052
0.8462751103
0.8202914247
0.7915618623
0.7687143317
0.8352536490
0.8493840284
0.7846212071
0.8522951806
0.7830183503
0.7719181542
0.8541099610
0.8040405266
0.7845077798
0.7674257007
0.8249138372
0.7917593655
0.8076764160
0.7738212982
0.8409810379
0.8118867152
0.7901685485
0.7661359166
0.8280504158
0.8459222954
0.7785285463
0.8499126829
0.8523633240
0.7967198822
0.7761771612
0.8157526021
0.7894973951
0.7994334811
0.7704689163
0.8895795783
0.8412343480
0.8557601194
0.8587687445
0.8657370243
0.8794289179
0.8623476228
0.9027749676
0.8987947205
0.9023575315
0.8554909074
0.8930079878
0.9054237307
0.8954743945
0.9059560780
0.8340919839
0.8943751546
0.8996781064
0.8749616507
0.8824093679
0.8576523357
0.8614036924
0.8717854680
0.8876008872
0.8581020643
0.9013600535
0.9008234773
0.8982934284
0.8539181241
0.8963057891
0.9055925383
0.9019164356
0.9071041766
0.8956089436
0.8682875540
0.8260632195
0.7990834507
0.7801519846
0.7719109808
0.7920945207
0.8146056892
0.8479912771
0.8568358675
0.8113320038
0.8541303521
0.7986344970
0.8385471640
0.8508348521
0.8310742623
0.7915643909
0.8188094609
0.7978657330
0.7761674073
0.7830212949
0.8063272094
0.8437452397
0.8544540955
0.8043464609
0.8511126727
0.7967251580
0.8326941021
0.8474094964
0.8230019338
0.7853187399
0.8629558147
0.8741705485
0.8679512775
0.8967634899
0.8570232227
0.9088209804
0.8897119569
0.8434631937
0.9022042899
0.9071184352
0.9099369510
0.9074849952
0.8590300819
0.8380577428
0.8801720217
0.8623747273
0.8962819290
0.9035573414
0.8644787848
0.8675900447
0.8732819634
0.9005269835
0.8557894918
0.9111952091
0.8818118071
0.8968345930
0.9051341203
0.9105260419
0.9030393878
0.8617852438
0.8881133407
0.8590002796
0.9035738806
0.9054326433
0.9258547786
0.8882990986
0.8605904414
0.9074374120
0.8220519920
0.7990850501
0.9244637559
0.9290941328
0.8410156433
0.8919465870
0.8530082650
0.8354959051
0.9089180013
0.9198488755
0.9296519458
0.7874179641
0.8495647950
0.8568665932
0.8183832053
0.8310729899
0.8060224412
0.8826093508
0.8856855022
0.8960515339
0.8000889785
0.8987085663
0.9203732001
0.8067186962
0.9235121291
0.8835299842
0.8579202364
0.9012792012
0.8141312532
0.7927921030
0.9203112749
0.9318626258
0.8365025541
0.8950299921
0.8490824206
0.8287235786
0.9153522593
0.9143505624
0.9261584092
0.7830113610
0.8459033958
0.8531186761
0.8117007684
0.8248412241
0.8043451676
0.8787593673
0.8898940229
0.8902980893
0.7907042773
0.9034917901
0.9254306199
0.8056942031
0.8496664961
0.9128826566
0.8639736495
0.8902430931
0.8720742260
0.9142854843
0.8831208461
0.9087214483
0.8281211211
0.8307576098
0.8393448880
0.9117387698
0.8410900738
0.8597855855
0.8685009163
0.9112182424
0.8602444101
0.8585403099
0.9044124776
0.8720213567
0.9014198339
0.8452511722
0.8982041799
0.8412430089
0.8645248740
0.8748362816
0.8511454782
0.8727740754
0.8490485341
0.9083565374
0.8670626473
0.8822119330
0.8753691724
0.9154417620
0.8903492259
0.9099576744
0.8250407215
0.8278978615
0.8398205916
0.9151563632
0.8427223847
0.8617055128
0.8698790231
0.9085630106
0.8590626880
0.8567569841
0.8980034348
0.8679055670
0.9056995419
0.9057320054
0.8618453007
0.8688476814
0.8526145789
0.8770245982
0.8811692057
0.9361976558
0.9029256481
0.9186964523
0.8962483207
0.8919536817
0.9052423536
0.9165704507
0.8276990345
0.9246625923
0.9265856121
0.9154484850
0.9246483467
0.8962613288
0.8389409790
0.9078989285
0.8755602451
0.8856903042
0.8864649162
0.8759265020
0.9071786025
0.8140034240
0.9198819418
0.9296658860
0.8887089227
0.9330235953
0.9078808393
0.9241063615
0.9171326345
0.7952871718
0.8717955261
0.9203872490
0.8517099801
0.8796168533
0.8857621905
0.9439726820
0.9386330978
0.8864731055
0.9139616032
0.9379591451
0.9089246769
0.9291050776
0.9431921543
0.8067124889
0.8606163900
0.8987178448
0.8952110164
0.9309124659
0.8853788783
0.9401909113
0.9098895227
0.9205036102
0.9191803714
0.8916841138
0.8889836437
0.9000915751
0.9213228633
0.8210362677
0.9244843439
0.9331514299
0.9193470440
0.9010904240
0.8336040704
0.9139725770
0.8783627214
0.8816166814
0.8816144516
0.9118580186
0.8116940461
0.9241721973
0.9305928453
0.8955868998
0.9278908135
0.9175559521
0.9126406154
0.7906948579
0.8735322765
0.9001878677
0.9145107901
0.8480382587
0.8759324315
0.9411083306
0.9356157990
0.8914326844
0.9081749207
0.9344206574
0.9035036336
0.9254459790
0.9461935895
0.8006605140
0.8556830332
0.8950356837
0.9017740367
0.8324035637
0.9068044192
0.9533143989
0.9544125252
0.9151798931
0.8440349713
0.8315793795
0.8920124622
0.8427265436
0.9178850540
0.8828205536
0.8689939052
0.8686642380
0.9601946074
0.8141938038
0.8307574251
0.8210651275
0.9139478026
0.8476493279
0.8419700228
0.9596378114
0.9067813629
0.8371067520
0.9362958430
0.9507551954
0.8496683336
0.8375974873
0.8645323856
0.8645324111
0.8500195843
0.8655251724
0.8776984790
0.9518804820
0.8517076743
0.8652989615
0.8033775955
0.8249627598
0.8732476066
0.9159898483
0.8342985623
0.8383799371
0.8590748123
0.8333721808
0.9365991686
0.8269455688
0.9113353365
0.9571747020
0.9512253908
0.9118579704
0.8328697500
0.8843893370
0.8398243466
0.9126058524
0.8666698785
0.8652983246
0.9580625224
0.8085029787
0.8278964907
0.8188900963
0.9143101939
0.8457634770
0.8375157879
0.9606440547
0.8998179218
0.8342999638
0.9424125736
0.9449663064
0.8478917844
0.8393489611
0.8617050007
0.8460926416
0.8460907546
0.8639977154
0.8724372376
0.9510407347
0.8511472611
0.7988363608
0.8250383179
0.8360934454
0.8653590305
0.9229638378
0.8284916078
0.8371041593
0.8542695155
0.9296471240
0.8703639621
0.8141873457
0.8419711094
0.8962604413
0.8033703537
0.9265896195
0.8907371345
0.8653738911
0.8608069217
0.8962054924
0.8479260284
0.8155671207
0.8542105926
0.9371542690
0.8456325104
0.9038357343
0.8357608051
0.8542799079
0.8595721597
0.9038385872
0.8903134700
0.9071801569
0.8460913384
0.9198672151
0.9203405590
0.8942348317
0.8787680840
0.9371630161
0.8521192003
0.8379718332
0.9362004014
0.9143712347
0.8866921747
0.8378388104
0.8811574188
0.8218029055
0.9165720093
0.9048200231
0.8862316327
0.8830628666
0.9299272722
0.8707491616
0.8432592154
0.9232249999
0.9445185263
0.8898985674
0.9227570647
0.9456372737
0.8601191500
0.8409535510
0.9227559802
0.9322634333
0.8324030927
0.8696779949
0.9125345003
0.8295861774
0.8210605092
0.9258097037
0.8662746304
0.8084957471
0.8375164005
0.8894754022
0.7988282020
0.9213268494
0.8862311395
0.9177068759
0.8590878538
0.8618847661
0.9009314162
0.8493155561
0.8111415213
0.8549761309
0.8418292783
0.8381563371
0.8500256867
0.8581203971
0.8934691486
0.9097430331
0.9021393762
0.8467084872
0.9270789855
0.9379162442
0.9379678390
0.8520900872
0.8339035613
0.9316302309
0.8792203989
0.8405228249
0.8202390240
0.9118593213
0.9456323833
0.8894769167
0.8874607106
0.8674084723
0.8444871734
0.9401978034
0.9445893562
0.8544377137
0.8426389246
0.9290393547
0.9431985628
0.8269432535
0.8720644449
0.9189461007
0.8249688389
0.8188844600
0.9099272925
0.8460933837