<VTKFile type="UnstructuredGrid" version="0.1">
	<UnstructuredGrid>
		<Piece NumberOfPoints="1862" NumberOfCells="3498">
			<CellData>
				<DataArray type="Int32" Name="type" NumberOfComponents="1" Format="ascii">
0
0
0
0
0
0
0
0
0
0
0
0
0
0
0
0
1
0
0
1
0
0
0
0
0
0
0
0
0
0
0
0
0
1
0
0
0
0
0
0
0
0
0
0
0
0
0
0
0
0
1
0
0
0
0
0
0
0
0
0
0
1
0
0
0
0
0
0
0
0
0
0
0
0
0
0
0
0
0
0
0
0
0
0
0
0
0
0
0
0
0
0
0
0
0
0
0
0
0
0
0
0
0
0
0
0
0
0
0
0
0
0
0
0
0
0
0
0
0
0
0
0
0
1
0
0
0
0
0
0
0
0
0
0
0
0
0
0
0
0
0
0
0
0
0
0
0
0
0
0
0
1
0
1
1
0
0
0
0
0
0
0
0
0
0
0
0
0
1
0
1
0
0
0
0
1
0
0
0
0
0
0
0
0
1
1
0
0
0
0
0
1
0
0
0
0
0
0
0
0
1
0
0
0
0
0
0
0
0
0
0
0
0
0
0
0
0
0
0
0
0
0
0
0
0
0
0
0
0
0
0
0
0
1
0
0
0
0
0
0
0
0
0
0
0
0
0
0
0
0
0
0
0
0
0
0
0
0
0
0
0
0
0
0
0
0
0
0
0
0
0
0
0
0
0
0
0
0
0
0
0
1
0
0
0
0
0
0
0
0
0
0
0
0
0
0
0
0
0
0
0
0
0
0
0
0
0
0
0
0
0
0
0
0
0
0
0
0
0
0
0
0
0
0
0
0
0
0
0
0
0
0
1
0
0
0
0
0
0
0
0
0
0
0
0
0
0
0
0
0
0
0
0
0
0
0
0
0
0
0
0
0
0
0
0
0
0
0
0
0
0
0
0
0
0
0
0
0
0
0
0
0
0
0
0
0
0
0
0
0
1
0
0
0
0
0
0
0
0
0
0
0
0
0
0
0
0
0
0
0
0
0
0
0
0
0
0
0
0
0
0
0
0
0
0
0
0
0
0
0
0
0
0
0
0
0
0
0
0
0
0
0
0
0
0
0
0
0
0
0
0
0
0
0
0
0
0
0
0
0
0
0
0
0
0
0
0
0
0
0
0
0
0
0
0
0
0
0
0
0
0
0
0
0
0
0
0
0
0
0
0
0
0
0
0
0
0
0
0
0
0
0
0
0
0
0
0
0
0
0
0
0
0
0
0
0
0
0
0
0
0
0
0
1
0
0
0
0
0
0
0
0
0
0
0
0
0
0
0
0
0
0
0
1
0
0
0
0
0
0
0
0
0
0
0
0
0
0
0
0
0
0
0
0
0
0
0
0
0
0
0
0
0
0
0
0
0
0
0
0
0
0
0
0
0
0
0
0
0
0
0
0
0
0
0
0
0
1
0
0
0
0
0
0
0
0
0
0
0
0
0
0
0
0
0
0
0
0
0
0
0
1
0
0
0
0
0
0
0
0
0
0
0
0
0
0
0
0
0
0
0
1
0
0
0
1
0
0
0
0
0
0
0
0
0
0
0
0
0
0
0
0
0
0
0
0
0
0
0
0
0
1
0
0
0
0
0
0
0
1
0
0
0
0
0
0
0
0
0
0
0
0
0
0
0
0
0
0
0
0
0
0
0
0
0
0
1
0
0
0
0
0
0
0
1
0
0
0
0
0
0
1
0
0
0
0
0
0
0
0
0
0
0
0
0
0
0
0
0
0
0
0
0
0
0
0
0
0
0
0
0
0
0
0
0
0
0
0
0
0
1
0
0
0
0
0
1
0
0
0
0
0
0
0
1
0
0
0
0
0
0
0
0
0
0
0
0
0
1
0
0
0
0
0
0
0
0
0
0
0
0
0
0
0
0
0
0
0
0
0
0
0
0
0
0
0
0
0
0
0
0
0
0
0
0
0
0
0
0
0
0
0
0
0
0
0
0
0
0
0
0
0
1
0
0
0
0
0
0
0
0
0
0
0
0
0
0
0
0
0
0
0
1
0
0
0
0
0
0
0
0
0
1
0
0
0
0
0
0
0
0
0
0
0
0
0
0
0
0
0
0
0
0
0
0
0
0
0
0
0
0
0
1
0
1
0
0
0
0
0
0
0
0
0
0
0
0
0
0
0
0
0
0
0
0
0
0
0
0
0
0
0
1
0
0
0
1
0
0
0
0
0
0
0
0
0
0
0
0
0
0
0
0
0
0
0
0
0
0
0
0
0
0
0
0
1
0
0
0
0
0
0
0
0
0
0
0
0
0
0
0
0
0
0
0
0
0
0
0
0
0
1
0
0
0
0
0
0
0
0
0
0
0
0
0
0
0
0
0
0
0
0
0
0
0
1
0
0
0
0
0
0
1
0
0
0
0
0
0
0
0
0
0
0
1
0
0
0
0
0
0
0
0
0
0
0
0
0
0
0
0
0
0
0
0
1
0
0
0
0
0
0
0
0
0
0
0
1
0
0
0
0
0
0
0
0
0
0
0
0
0
0
0
0
0
0
0
0
0
1
0
0
0
0
0
0
0
0
0
1
1
0
1
0
1
0
0
0
0
0
0
0
0
0
0
0
1
0
0
0
0
0
1
1
0
0
0
0
0
0
1
0
0
0
0
0
1
1
1
0
0
0
0
0
0
0
0
0
0
0
0
1
1
0
0
1
0
0
0
0
0
1
0
0
0
1
0
1
0
0
0
0
0
0
0
1
0
0
0
0
0
0
0
1
0
0
1
0
0
0
0
0
0
0
0
0
0
0
0
0
0
0
1
0
0
0
0
0
0
0
0
0
0
0
0
0
0
0
0
0
0
0
0
0
0
0
0
0
0
0
0
0
0
0
0
0
0
0
0
1
0
0
0
0
0
0
1
0
0
0
1
0
0
0
0
0
0
0
0
0
0
0
1
0
0
0
0
0
0
0
0
0
0
0
0
0
0
0
0
0
0
0
0
0
0
0
0
0
0
0
0
0
0
0
0
0
0
0
0
0
0
0
0
1
1
0
0
0
0
0
0
0
0
0
0
0
0
0
1
0
0
0
0
0
0
0
0
0
0
0
0
0
0
0
0
0
0
0
0
0
0
0
0
0
0
0
0
0
0
0
0
0
0
0
0
0
0
0
0
0
0
0
0
0
0
0
0
0
0
0
0
0
0
0
0
0
0
0
0
0
0
0
0
0
0
0
0
0
0
0
0
1
1
0
0
0
0
0
0
0
0
1
0
0
0
0
0
0
0
0
0
0
0
0
0
0
0
0
0
0
0
0
0
0
0
1
0
0
0
0
0
0
0
0
0
0
0
0
0
0
0
0
1
0
0
0
0
0
0
0
0
0
0
0
0
0
0
0
0
0
0
0
0
0
0
0
0
0
0
0
0
0
0
0
0
0
0
0
0
0
0
0
0
0
0
0
0
0
0
0
0
0
0
0
0
0
0
0
0
0
0
0
0
0
0
0
0
0
0
0
0
0
0
0
0
0
0
0
0
0
0
0
0
0
0
0
0
0
0
0
0
0
0
1
1
0
0
0
0
0
1
0
0
0
0
0
0
0
0
0
0
0
0
1
0
0
0
0
0
0
0
0
0
0
0
0
0
0
0
0
0
0
0
0
0
0
0
0
0
0
0
0
0
0
0
0
0
0
0
0
0
0
0
0
0
0
0
0
0
0
0
0
0
0
0
0
0
1
0
1
0
0
0
0
0
0
0
0
0
0
0
0
0
0
0
0
0
0
1
0
0
0
0
0
0
0
0
0
0
0
0
0
0
0
0
0
0
0
0
0
0
0
0
0
0
0
0
0
0
0
0
0
0
0
0
0
0
0
0
0
0
0
0
0
0
0
0
0
0
0
0
0
0
0
0
0
0
0
0
0
0
0
0
0
0
0
0
0
0
1
0
0
0
0
0
0
0
0
0
0
1
0
0
0
0
0
0
0
0
0
0
0
0
0
0
0
0
0
0
0
0
0
0
0
0
0
0
0
0
0
0
0
0
0
0
0
0
0
1
0
0
0
0
0
0
0
0
0
0
0
0
0
0
0
0
0
0
0
0
0
0
0
0
0
0
0
0
0
0
0
0
0
0
0
0
0
0
0
0
0
0
0
0
0
0
0
0
0
0
0
0
0
0
0
0
0
0
0
0
0
0
0
0
0
0
0
0
0
0
0
0
0
0
0
0
0
0
0
0
0
1
0
0
0
0
0
0
0
0
0
0
0
0
0
0
0
0
0
0
0
0
0
0
0
0
0
0
0
0
0
0
0
0
0
0
0
0
0
0
0
0
0
0
0
0
0
0
0
0
0
0
0
0
0
0
0
0
0
0
0
0
0
0
0
0
0
0
0
0
0
0
0
0
0
0
0
0
0
0
0
0
0
0
0
0
0
0
0
0
0
0
0
0
0
0
0
0
0
0
0
0
0
0
0
0
0
0
0
0
0
0
0
0
0
0
0
0
0
0
0
0
0
0
0
1
0
0
0
0
0
0
0
0
0
0
0
0
0
0
0
0
0
0
0
0
0
0
0
0
0
0
0
0
0
0
0
0
0
0
0
0
0
0
0
0
0
0
0
0
0
0
0
0
0
0
0
0
0
0
0
0
0
0
0
0
0
0
0
0
0
0
0
0
0
0
0
0
0
0
0
0
0
0
0
0
0
1
0
0
0
0
0
0
0
1
0
0
0
0
0
0
0
0
0
0
0
0
0
0
0
0
0
0
0
0
0
0
0
0
0
0
0
0
0
0
0
0
0
0
0
0
0
1
0
0
0
0
0
0
0
0
0
0
0
0
0
0
0
0
0
0
0
0
0
1
0
0
0
0
0
0
0
0
0
0
0
0
1
1
0
0
0
0
0
0
0
0
0
0
0
0
0
0
0
1
1
0
1
0
0
0
0
0
0
0
0
0
1
0
0
0
0
0
0
1
0
0
0
0
0
0
0
0
0
0
1
0
0
0
0
1
0
1
0
0
0
0
0
0
0
1
0
0
0
1
0
0
0
1
0
1
1
0
0
1
1
0
0
0
1
0
0
0
1
0
0
0
0
0
0
0
0
0
1
0
0
0
0
0
0
1
0
0
0
0
0
0
0
0
0
0
0
0
0
0
0
0
0
0
0
0
0
0
0
0
0
0
0
1
0
0
1
0
0
0
0
0
0
0
0
0
0
0
0
0
0
0
0
0
0
1
0
0
1
0
0
0
0
0
0
0
0
0
0
0
1
0
0
1
0
0
0
0
0
0
0
0
0
0
0
1
1
0
0
0
0
0
0
0
0
0
0
0
0
1
0
0
0
0
0
0
0
0
0
0
0
0
0
0
0
0
0
1
0
0
0
0
0
0
0
0
0
0
0
0
0
0
0
0
0
1
0
0
0
0
0
0
0
0
0
0
0
0
0
0
0
0
0
0
0
0
0
0
0
0
0
0
0
0
0
0
0
0
0
0
0
0
0
0
0
0
1
0
0
0
0
0
0
0
0
0
0
0
0
0
0
0
0
0
0
0
0
0
0
0
0
0
0
0
0
0
0
0
0
0
0
0
0
0
0
0
0
0
0
0
0
0
1
0
0
0
0
0
0
0
0
0
0
0
0
0
0
0
0
0
0
0
0
0
0
0
0
0
0
0
0
0
0
0
0
0
0
0
0
0
0
0
0
0
0
0
0
0
0
0
1
0
0
0
0
0
0
0
0
0
0
1
0
0
0
0
0
0
0
0
0
0
0
0
0
0
0
1
0
0
1
0
0
0
0
0
0
0
0
0
0
0
0
0
0
0
0
0
0
0
0
0
0
0
1
0
0
0
0
0
0
0
0
0
0
0
0
0
0
0
0
0
0
0
0
0
0
0
0
0
0
0
0
0
0
0
0
0
0
0
1
0
0
0
0
0
0
0
0
0
0
0
0
0
0
0
0
0
0
0
0
0
0
0
0
0
0
0
0
0
0
0
0
0
0
0
0
0
0
0
0
0
0
0
0
0
0
0
0
0
0
0
0
0
0
0
0
0
0
0
0
0
0
0
0
0
0
0
0
0
0
0
0
0
0
0
0
1
0
0
0
0
0
0
0
0
0
0
0
0
0
0
0
0
0
0
0
0
0
0
0
0
0
0
0
0
0
0
0
0
0
0
0
0
0
0
0
1
0
0
0
0
0
0
0
0
0
0
0
0
1
1
0
0
0
0
0
0
0
0
0
0
0
0
0
0
0
0
0
0
0
0
0
0
0
0
0
0
0
0
0
0
0
0
0
0
0
0
0
0
0
0
0
0
0
0
0
0
0
0
0
0
0
0
0
0
0
0
0
0
0
0
0
0
0
0
0
0
0
0
0
0
0
0
0
0
0
0
0
0
0
0
0
0
0
0
0
0
0
0
0
0
0
0
0
0
0
0
0
0
0
0
0
1
0
1
0
0
0
0
0
0
0
1
1
1
1
0
0
0
0
0
0
0
0
0
0
0
0
0
0
0
0
0
0
0
0
0
0
0
0
0
0
0
0
1
1
0
0
0
0
0
0
0
0
0
0
0
0
0
0
0
0
0
0
1
0
0
0
0
0
0
0
1
1
0
1
1
0
0
1
0
0
0
0
0
0
0
1
0
1
0
0
0
0
0
0
0
0
0
0
0
0
0
0
0
0
0
0
0
0
0
0
0
0
0
0
0
1
1
0
0
0
1
1
0
0
0
0
1
0
0
1
0
1
0
0
0
0
0
1
0
0
0
1
0
0
0
0
0
0
0
0
0
0
0
0
0
0
0
0
0
0
0
0
0
0
0
0
0
0
0
1
0
0
0
0
0
0
1
0
0
0
0
0
0
0
0
0
0
0
0
0
0
0
0
0
0
0
0
0
0
0
0
0
0
0
0
0
1
0
1
0
0
0
0
0
0
0
1
0
0
0
0
0
0
0
0
0
0
0
1
0
0
0
0
0
0
0
0
0
1
0
0
0
0
0
0
0
1
0
0
0
0
0
0
0
1
0
0
0
0
0
0
0
0
0
0
0
0
0
0
0
0
0
0
0
1
0
1
0
0
0
0
0
1
0
0
0
0
0
0
0
0
0
0
0
0
0
0
0
0
0
0
0
0
0
0
0
0
0
1
0
1
0
0
0
0
0
0
0
0
0
1
0
0
0
0
0
1
0
0
0
0
0
0
0
0
0
0
0
0
0
0
0
1
0
0
0
0
0
0
0
0
1
0
0
0
0
0
0
0
0
0
0
0
0
0
0
0
0
0
0
0
0
0
0
0
0
0
0
0
0
0
0
1
0
0
0
0
0
0
0
0
0
0
0
0
0
0
0
0
1
0
0
0
0
0
0
0
0
1
0
0
0
0
0
0
0
0
0
1
0
0
0
0
0
1
0
0
0
0
0
0
0
0
0
0
0
0
0
0
0
0
0
0
0
1
0
0
0
0
0
0
1
0
0
0
0
0
0
0
0
1
0
0
0
0
0
0
0
0
0
0
0
0
0
0
1
0
0
1
0
0
0
1
0
0
0
0
0
0
0
0
0
0
0
0
0
0
0
0
1
0
0
0
0
0
0
0
0
0
0
1
0
1
0
0
0
0
0
0
1
0
0
0
0
0
0
0
0
0
0
0
0
0
0
0
0
0
0
0
0
0
0
0
0
0
0
0
1
1
0
0
0
0
0
0
1
0
0
0
0
0
0
0
0
0
0
0
0
0
1
0
0
0
0
0
0
0
1
0
0
0
0
0
0
0
0
0
0
0
0
0
0
0
0
0
0
0
0
0
0
0
0
0
0
0
1
0
0
0
0
0
0
0
0
0
0
1
0
0
1
0
0
0
0
0
0
0
0
0
0
0
0
0
0
0
0
0
0
0
0
0
0
0
0
0
0
0
0
0
1
0
0
0
0
0
0
0
1
0
0
0
0
0
0
0
1
0
0
0
0
1
0
0
0
0
0
0
0
0
0
0
0
1
0
1
0
0
0
1
0
				</DataArray>
				<DataArray type="Float64" Name="h" NumberOfComponents="1" Format="ascii">
0.8676391805
0.8676507647
0.8679806236
0.8689421841
0.8678549916
0.8692543900
0.8681528653
0.8665648297
0.8682406176
0.8656700073
0.8674867366
0.8695003392
0.8662656451
0.8685545067
0.8670870746
0.8635705223
0.8687127087
0.8662871368
0.8657572620
0.8683815343
0.8677880146
0.8650379572
0.8645444509
0.8691021850
0.8675412930
0.8651672706
0.8614142207
0.8587245674
0.8657425012
0.8660722925
0.8666715081
0.8662871714
0.8632240944
0.8699223459
0.8730828303
0.8672082127
0.8688391984
0.8617352166
0.8556165719
0.8684410749
0.8669633798
0.8639483386
0.8634657822
0.8628534832
0.8680040881
0.8609354363
0.8639197050
0.8734910505
0.8752523739
0.8689005799
0.8712477830
0.8647087464
0.8647537110
0.8654244572
0.8672952497
0.8605958697
0.8631642815
0.8760866276
0.8760679634
0.8697769640
0.8829040836
0.8822127002
0.8772956620
0.8663975439
0.8610385597
0.8565219449
0.8620207250
0.8710116592
0.8796142776
0.8787365852
0.8757098230
0.8696438700
0.8583735203
0.8683527320
0.8727346551
0.8460212348
0.8764602000
0.8789703720
0.8756496756
0.8506004748
0.8857160042
0.8575528796
0.8830341403
0.8638811959
0.8504754894
0.8474982728
0.8861473889
0.8559397072
0.8765245515
0.8795241933
0.8846963817
0.8481991298
0.8814532521
0.8742775356
0.8511703109
0.8504753989
0.8499840016
0.8513986187
0.8534279562
0.8857169541
0.8813475939
0.8860810525
0.8565124345
0.8749622248
0.8634030395
0.8555459243
0.8447309998
0.8787007196
0.8786837465
0.8544559859
0.8706415935
0.8766892677
0.8813845586
0.8814392564
0.8627551515
0.8897560441
0.8598650546
0.8662166082
0.8843917783
0.8694533499
0.8645423205
0.8531510670
0.8422645636
0.8620438844
0.8779903108
0.8807458259
0.8659538944
0.8621038376
0.8910220064
0.8880506974
0.8877874641
0.8480554043
0.8721913972
0.8932615029
0.8644742792
0.8866018807
0.8630488307
0.8919384385
0.8894981305
0.8623296250
0.8611955013
0.8622025235
0.8883415110
0.8612143155
0.8447389024
0.8880282808
0.8624665590
0.8884673650
0.8623587696
0.8884944489
0.8619976731
0.8935652201
0.8920755391
0.8918173673
0.8890002790
0.8901116764
0.8925998402
0.8626878653
0.8899557874
0.8544341738
0.8627022319
0.8906549237
0.8628359402
0.8585758775
0.8617174679
0.8869134511
0.8587306296
0.8636420675
0.8579059501
0.8889960342
0.8932968506
0.8546369362
0.8913934006
0.8609486278
0.8572493795
0.8888834622
0.8604811227
0.8853511208
0.8898173928
0.8571002605
0.8891636388
0.8529427965
0.8532962812
0.8400250258
0.8554576501
0.8451350144
0.8551822928
0.8891990670
0.8540585085
0.8415384890
0.8483269400
0.8906110873
0.8492887309
0.8509590842
0.8885855578
0.8859869065
0.8580912820
0.8437483375
0.8463754715
0.8844564322
0.8410872361
0.8396924741
0.8439045443
0.8885481187
0.8400049425
0.8545081965
0.8618466419
0.8605317359
0.8419873905
0.8591508752
0.8479285322
0.8492014345
0.8569686236
0.8529945992
0.8616107800
0.8434532349
0.8610023507
0.8557726899
0.8522948230
0.8527050511
0.8385414494
0.8723710128
0.8562004341
0.8586868406
0.8379854782
0.8844630807
0.8814438292
0.8462265450
0.8371099855
0.8777365138
0.8865609932
0.8657830837
0.8412231448
0.8838481686
0.8843510304
0.8518482530
0.8456756296
0.8606493876
0.8502307655
0.8573180671
0.8462163362
0.8598907688
0.8555812726
0.8580652967
0.8612699749
0.8621224969
0.8552851357
0.8501595684
0.8607387931
0.8562833802
0.8594707203
0.8503091939
0.8576084441
0.8415024191
0.8422514427
0.8547533343
0.8606065552
0.8622833078
0.8529692024
0.8627113400
0.8541341956
0.8360365872
0.8419040714
0.8540154237
0.8386358368
0.8830009597
0.8822974874
0.8368529014
0.8820036682
0.8680884891
0.8783646583
0.8544329702
0.8755537088
0.8485082610
0.8554608466
0.8364196817
0.8378944292
0.8473884551
0.8611753819
0.8365732681
0.8797832483
0.8815330678
0.8828593335
0.8821274150
0.8740084412
0.8696628709
0.8429244011
0.8593970945
0.8561483032
0.8559145089
0.8605008307
0.8445237271
0.8590808804
0.8606203763
0.8562359937
0.8462132864
0.8560348238
0.8597154091
0.8562328383
0.8547305163
0.8555400429
0.8611132156
0.8485385737
0.8432255264
0.8411118675
0.8584742773
0.8497984844
0.8587834420
0.8577881147
0.8367853701
0.8446070990
0.8399624750
0.8796008932
0.8376516177
0.8753987826
0.8580324717
0.8532256614
0.8715925032
0.8803979210
0.8524484976
0.8505999493
0.8365728398
0.8643152916
0.8806508924
0.8372638046
0.8394921965
0.8445802045
0.8805719520
0.8509128288
0.8652011483
0.8764843794
0.8800214674
0.8794538294
0.8384054360
0.8574144155
0.8359736447
0.8705325782
0.8590340724
0.8770585158
0.8556532539
0.8478957049
0.8547190628
0.8564726897
0.8451499880
0.8580877297
0.8587347891
0.8595707568
0.8555814728
0.8733392010
0.8524684973
0.8458182608
0.8569744037
0.8597873989
0.8573842151
0.8771838330
0.8575611111
0.8582026387
0.8504298202
0.8572791373
0.8646370339
0.8653363769
0.8746561853
0.8555204168
0.8482656373
0.8429984694
0.8586021720
0.8589157008
0.8590878496
0.8517767790
0.8554038170
0.8595724360
0.8716713483
0.8557075112
0.8787289093
0.8545677705
0.8491373370
0.8784905535
0.8488797392
0.8728782242
0.8400278283
0.8406581134
0.8680445564
0.8775332721
0.8531804346
0.8616405673
0.8516167524
0.8372860368
0.8426211809
0.8407038640
0.8601125494
0.8779454734
0.8426527001
0.8480439434
0.8698975297
0.8781916015
0.8551896645
0.8456813162
0.8531719177
0.8554452097
0.8667915417
0.8393268043
0.8733920177
0.8649251596
0.8615031359
0.8683827494
0.8785803646
0.8677666708
0.8379146477
0.8387729854
0.8623667014
0.8441241108
0.8552601365
0.8589167292
0.8597574355
0.8578777390
0.8756228828
0.8695069205
0.8543981270
0.8608085664
0.8458410552
0.8651669242
0.8630910608
0.8582897144
0.8697254834
0.8769267223
0.8495160594
0.8758957590
0.8559958337
0.8684416284
0.8477035228
0.8513318944
0.8793768793
0.8619448275
0.8747126264
0.8582877655
0.8537298527
0.8806489397
0.8644178637
0.8756720449
0.8705650270
0.8664162948
0.8729008793
0.8585177947
0.8751564290
0.8713982395
0.8564393031
0.8452806798
0.8716868498
0.8536926849
0.8730262167
0.8680522886
0.8741631879
0.8553876633
0.8481227636
0.8496023906
0.8630896777
0.8803429204
0.8776062240
0.8652194575
0.8821878730
0.8565576652
0.8467022979
0.8571087419
0.8754251700
0.8520020457
0.8529949369
0.8465366194
0.8405361537
0.8705397862
0.8569510286
0.8767375236
0.8550778458
0.8654763259
0.8525370922
0.8458935267
0.8432393082
0.8872592307
0.8641981688
0.8544744242
0.8484093160
0.8491695294
0.8521045949
0.8573890828
0.8769475651
0.8922322452
0.8875067044
0.8709114659
0.8510310279
0.8474637849
0.8521998910
0.8760137134
0.8422324554
0.8907261519
0.8548920654
0.8456759570
0.8577851562
0.8562792144
0.8934715477
0.8592430334
0.8470257837
0.8860693036
0.8847873454
0.8613493553
0.8554409335
0.8667872927
0.8537221850
0.8409233789
0.8545037690
0.8531180425
0.8796087739
0.8510354387
0.8518416226
0.8788977323
0.8550744990
0.8744403764
0.8544634288
0.8746035014
0.8681913668
0.8530103978
0.8570310612
0.8518420950
0.8652991839
0.8719983695
0.8764140519
0.8574124238
0.8787161151
0.8420242343
0.8716635575
0.8730896625
0.8554308512
0.8704190464
0.8571059510
0.8662599858
0.8559865460
0.8569440515
0.8749934867
0.8548822594
0.8562776984
0.8544910436
0.8730876388
0.8520998050
0.8727739530
0.8557279717
0.8533016256
0.8652300815
0.8573879381
0.8431456886
0.8525364421
0.8693265138
0.8514639515
0.8823003643
0.8602476350
0.8569821320
0.8771218457
0.8539192480
0.8773664882
0.8556654410
0.8478016380
0.8756171998
0.8791236571
0.8557224457
0.8451042724
0.8776251805
0.8573836510
0.8763871704
0.8644562853
0.8537195351
0.8465533331
0.8816444567
0.8742117682
0.8563395344
0.8765305064
0.8828550945
0.8777576194
0.8458459986
0.8511219281
0.8521690501
0.8760633135
0.8788950407
0.8599789846
0.8583042341
0.8537203337
0.8860674452
0.8404895587
0.8781155950
0.8546988432
0.8757008506
0.8589562487
0.8452895397
0.8449542082
0.8759379861
0.8766106308
0.8583707427
0.8781470756
0.8500590599
0.8481263711
0.8605981207
0.8514231209
0.8911902351
0.8668057466
0.8719245364
0.8594211429
0.8879187987
0.8573106070
0.8495348885
0.8569449812
0.8740734535
0.8905082517
0.8695380527
0.8376983027
0.8695088408
0.8530367600
0.8890699729
0.8412478323
0.8760618995
0.8561610549
0.8836712923
0.8559811474
0.8563360072
0.8554315782
0.8574083772
0.8806997003
0.8774175744
0.8519889675
0.8530008931
0.8588999839
0.8378985663
0.9006789375
0.8539109574
0.8519499295
0.8740728547
0.8411329204
0.8583686050
0.8556599196
0.8570241649
0.8557219635
0.8569777226
0.8957229569
0.9018373346
0.8904529364
0.8806692139
0.8532905871
0.8706346637
0.8768698773
0.8617748500
0.8896385415
0.8872198010
0.8771202041
0.8628189045
0.8915001869
0.8370009858
0.8582112780
0.8508343248
0.8543092254
0.8357517673
0.8604240820
0.8629407959
0.8573827278
0.8923749169
0.8570551743
0.8507891643
0.8526991464
0.8870336264
0.8985902638
0.9021954421
0.8886294581
0.8364165353
0.8592963879
0.8515887455
0.8557617947
0.8984714557
0.9009985516
0.8749903223
0.8646262240
0.8754224055
0.8459786781
0.8973836384
0.8445345942
0.8502350762
0.9107839173
0.9080627169
0.8670234608
0.8650854341
0.9014410745
0.8611391307
0.8580675640
0.8399678816
0.9052558277
0.9083227959
0.9081707706
0.8555403740
0.8501887016
0.8376220155
0.8404715077
0.8446070067
0.9049805632
0.9090597867
0.8929176828
0.8992870221
0.8357692156
0.9120295532
0.9140847495
0.8378127964
0.9018357233
0.8975016948
0.8376933860
0.9155961781
0.8602452327
0.9064510168
0.8468747235
0.8507237014
0.9152970037
0.8412442266
0.9117001132
0.9063762284
0.8451009414
0.9018129720
0.8417511712
0.8395388775
0.8990633936
0.8968699424
0.8439972185
0.8665071508
0.8675752973
0.8675867203
0.8665140264
0.8686503851
0.8694970883
0.8674817549
0.8685653331
0.8677940913
0.8692515990
0.8678602904
0.8677940378
0.8682432063
0.8670801153
0.8681437527
0.8676093640
0.8685729304
0.8686558315
0.8670732577
0.8662875533
0.8689517168
0.8679856696
0.8657501168
0.8660709426
0.8651229371
0.8675960538
0.8665728080
0.8651681552
0.8675328678
0.8656717519
0.8652995036
0.8662712671
0.8703143817
0.8642222060
0.8656994774
0.8676106063
0.8666693477
0.8670807899
0.8699167671
0.8632157057
0.8662729663
0.8630493897
0.8684356819
0.8555401012
0.8687190782
0.8635740314
0.8634556435
0.8556108606
0.8675993702
0.8651203163
0.8669573069
0.8685571090
0.8683902064
0.8703186366
0.8645535072
0.8727697527
0.8650406550
0.8713310079
0.8653047706
0.8677923312
0.8657112388
0.8639627265
0.8591907557
0.8734813951
0.8642257367
0.8679976533
0.8712389187
0.8639067851
0.8587243625
0.8691060390
0.8657424086
0.8631568147
0.8567975401
0.8614306131
0.8690874102
0.8651947787
0.8557916680
0.8662612014
0.8716748251
0.8630593403
0.8647432313
0.8727774327
0.8727021657
0.8736899850
0.8639734236
0.8713377965
0.8699808811
0.8591880021
0.8672121842
0.8610346045
0.8617471867
0.8702394795
0.8730929748
0.8772972687
0.8709989600
0.8618696970
0.8688461000
0.8663932097
0.8662600152
0.8742671426
0.8729349067
0.8628547898
0.8683488999
0.8678436056
0.8696390662
0.8583799892
0.8796608389
0.8545168238
0.8582167886
0.8690944263
0.8825240357
0.8716856403
0.8639513481
0.8764512135
0.8757029872
0.8704731543
0.8727312153
0.8568017759
0.8606307507
0.8796051823
0.8731507253
0.8651941414
0.8787248176
0.8699871523
0.8702469901
0.8533504409
0.8618678530
0.8672324109
0.8699175867
0.8659246355
0.8752467259
0.8647114897
0.8736992384
0.8609369549
0.8575536967
0.8638685366
0.8632156533
0.8727082212
0.8689099740
0.8829103097
0.8822214956
0.8606358480
0.8831672425
0.8704700390
0.8760741140
0.8717823115
0.8678425631
0.8478113821
0.8568623565
0.8742755740
0.8731618567
0.8676767244
0.8672994472
0.8798189439
0.8796692752
0.8825345674
0.8606024871
0.8605907037
0.8737571231
0.8545871771
0.8654188930
0.8729399863
0.8697762642
0.8481836578
0.8760973341
0.8582126482
0.8814528406
0.8672316011
0.8749486696
0.8534205763
0.8632128835
0.8522098031
0.8699190198
0.8860761925
0.8593698014
0.8834305440
0.8605629397
0.8565258109
0.8813774682
0.8620371186
0.8747947552
0.8516815250
0.8856465910
0.8504657941
0.8656987198
0.8659508167
0.8857243619
0.8555117556
0.8533622898
0.8843886863
0.8605887816
0.8786795108
0.8767006804
0.8831732781
0.8737603067
0.8813838405
0.8676773453
0.8460525219
0.8677642786
0.8717854267
0.8789755783
0.8568816107
0.8848359365
0.8478331856
0.8706281180
0.8544571321
0.8798252280
0.8834306832
0.8843559558
0.8626953283
0.8856517406
0.8475206189
0.8531448147
0.8743212763
0.8748070578
0.8654706032
0.8656969781
0.8605615415
0.8505027153
0.8506238442
0.8861441422
0.8829962668
0.8857153772
0.8598734555
0.8756598803
0.8594104886
0.8645481139
0.8559624662
0.8522437963
0.8848261210
0.8480378977
0.8638321384
0.8633191908
0.8807671968
0.8795233156
0.8825309564
0.8765226748
0.8511863084
0.8742808168
0.8863518272
0.8794986982
0.8846863291
0.8827476579
0.8782694044
0.8779853627
0.8659537513
0.8678030924
0.8880735434
0.8565154190
0.8847083599
0.8608122544
0.8626881217
0.8654641295
0.8743182252
0.8792901453
0.8644793637
0.8866201698
0.8721948755
0.8633985316
0.8500181214
0.8447174283
0.8570599686
0.8622109392
0.8758363383
0.8633162685
0.8863270157
0.8814317393
0.8786835098
0.8630781485
0.8782803407
0.8825240947
0.8627538113
0.8623681745
0.8638691211
0.8883625403
0.8589539771
0.8897299732
0.8795246171
0.8880463224
0.8827316361
0.8447611620
0.8649383936
0.8434659425
0.8538471531
0.8933706266
0.8846850598
0.8792850649
0.8611795262
0.8918210597
0.8831852849
0.8890498944
0.8694534069
0.8608845302
0.8935855918
0.8662106553
0.8890930587
0.8843744856
0.8670945710
0.8620048719
0.8920958567
0.8890016342
0.8630811200
0.8589403625
0.8636438502
0.8617249176
0.8758466346
0.8898946457
0.8649289564
0.8596340797
0.8877927462
0.8515959121
0.8571169547
0.8620309503
0.8910046334
0.8626970808
0.8636553745
0.8422975725
0.8877699237
0.8648174137
0.8628389901
0.8909122192
0.8906744139
0.8620915105
0.8899757768
0.8890399673
0.8630498742
0.8932433556
0.8916461927
0.8486370845
0.8831550005
0.8909032928
0.8919169499
0.8914185019
0.8674525433
0.8626451383
0.8894937863
0.8670893713
0.8539308034
0.8611697799
0.8933483213
0.8435039460
0.8890796393
0.8890154209
0.8919435161
0.8918019760
0.8933210050
0.8609552424
0.8884754844
0.8533133933
0.8472190724
0.8636485381
0.8596216429
0.8859573580
0.8917574073
0.8904926245
0.8612254327
0.8884486136
0.8624661636
0.8571110461
0.8877759783
0.8648138954
0.8516513348
0.8556550176
0.8611861605
0.8891893849
0.8908961299
0.8604697518
0.8917098241
0.8623347785
0.8898741376
0.8563067557
0.8540764556
0.8900869521
0.8925766749
0.8626385393
0.8430957611
0.8916270751
0.8652281282
0.8674518157
0.8486957678
0.8554792810
0.8908770517
0.8917892583
0.8626795529
0.8919320571
0.8551825338
0.8422663488
0.8886111302
0.8587442021
0.8562919295
0.8859285450
0.8860104476
0.8556406666
0.8904708036
0.8917017174
0.8872325741
0.8519987170
0.8917363176
0.8472666144
0.8590490167
0.8906344323
0.8931426172
0.8585630125
0.8868877206
0.8509464650
0.8865287664
0.8544170263
0.8396551746
0.8879416492
0.8546166803
0.8439299067
0.8572537918
0.8885656471
0.8431427211
0.8578880669
0.8411132006
0.8652205906
0.8463494459
0.8867752426
0.8897944507
0.8597100376
0.8519791742
0.8590341502
0.8492245061
0.8865128676
0.8872108344
0.8547816713
0.8848743860
0.8529698554
0.8931282038
0.8888554424
0.8423049467
0.8464844413
0.8445073209
0.8853332981
0.8569804941
0.8419508548
0.8483401243
0.8865728802
0.8879213816
0.8415122400
0.8867551363
0.8871829040
0.8860882696
0.8400567096
0.8451098708
0.8891786585
0.8385221325
0.8553019876
0.8621260829
0.8599345964
0.8612793251
0.8437849081
0.8444805211
0.8395581648
0.8522576364
0.8580549484
0.8586802115
0.8597006620
0.8456619174
0.8492644338
0.8482858274
0.8848458470
0.8580812971
0.8513906458
0.8622896243
0.8597629100
0.8414866386
0.8606030530
0.8576196790
0.8501597674
0.8464576710
0.8502575419
0.8547668189
0.8851850122
0.8381584749
0.8400210328
0.8871673714
0.8696234732
0.8544212845
0.8860712665
0.8553539830
0.8365450394
0.8828665400
0.8798082282
0.8835368696
0.8428608769
0.8368354132
0.8755556057
0.8844401165
0.8626266441
0.8385947163
0.8820154780
0.8822017447
0.8830171204
0.8484190044
0.8479360785
0.8605057512
0.8583368146
0.8526823736
0.8560255211
0.8445117811
0.8586694074
0.8395676559
0.8599253005
0.8539775998
0.8391904497
0.8606316909
0.8561632084
0.8522366197
0.8591574624
0.8605227154
0.8618434636
0.8544873868
0.8523060392
0.8611220561
0.8577995312
0.8482583025
0.8587818074
0.8485429442
0.8557591566
0.8434826481
0.8410979443
0.8593782098
0.8535981394
0.8610047117
0.8597518156
0.8616067223
0.8513634688
0.8658327455
0.8524511154
0.8388856705
0.8359530423
0.8394464904
0.8508053431
0.8412786374
0.8821757367
0.8843352899
0.8805689013
0.8371359667
0.8838364039
0.8809832133
0.8651268838
0.8764868649
0.8562093818
0.8851743003
0.8777219136
0.8519301377
0.8587665209
0.8376341426
0.8365467488
0.8445272408
0.8579225147
0.8380260824
0.8814149861
0.8835120010
0.8796024762
0.8381721262
0.8844554928
0.8806556604
0.8715634585
0.8794764742
0.8723859582
0.8462959363
0.8590404226
0.8577891565
0.8555626783
0.8539586456
0.8564862787
0.8606437983
0.8462232737
0.8409225638
0.8595814156
0.8392071774
0.8598806209
0.8547272565
0.8451418482
0.8573237224
0.8583256635
0.8597961917
0.8573962972
0.8535727515
0.8548493647
0.8607310691
0.8503005896
0.8429873547
0.8585695545
0.8422671540
0.8593656447
0.8572807084
0.8482602122
0.8594692257
0.8562709725
0.8378968310
0.8474772146
0.8387475088
0.8815301963
0.8364389667
0.8733725010
0.8612629452
0.8516273674
0.8740200370
0.8794654120
0.8785175186
0.8785607883
0.8420925332
0.8541415222
0.8479632600
0.8379386715
0.8614196980
0.8821185075
0.8372688155
0.8419712479
0.8425701687
0.8822969642
0.8389040150
0.8769154650
0.8541189116
0.8681377936
0.8783528795
0.8784785141
0.8775175389
0.8406419758
0.8544708984
0.8360673339
0.8679945748
0.8809674096
0.8755927952
0.8513284024
0.8451215179
0.8607866805
0.8593901594
0.8577780599
0.8758084903
0.8751692067
0.8544003637
0.8568833801
0.8477019184
0.8562328220
0.8611422240
0.8696987214
0.8776538272
0.8558983376
0.8462244999
0.8409407035
0.8582990107
0.8578828689
0.8590706601
0.8552605019
0.8623169388
0.8537225595
0.8560084434
0.8564816444
0.8684665752
0.8569380323
0.8744049003
0.8500078141
0.8466994120
0.8570707831
0.8597071029
0.8562214144
0.8738107084
0.8766861961
0.8564414218
0.8560100693
0.8496005895
0.8584698734
0.8649844501
0.8664235436
0.8763772059
0.8548268967
0.8497959118
0.8432380716
0.8574539271
0.8585252674
0.8585574904
0.8554788782
0.8620681425
0.8504597694
0.8551451542
0.8582385598
0.8721023478
0.8565691388
0.8613548343
0.8769126160
0.8467809980
0.8575148065
0.8730302312
0.8763931152
0.8474204844
0.8800273248
0.8484148571
0.8464790234
0.8558327572
0.8708804872
0.8522025447
0.8690514212
0.8422208813
0.8769231048
0.8384219643
0.8645632383
0.8705690777
0.8671774862
0.8794616792
0.8520017480
0.8591795928
0.8532148439
0.8372911158
0.8446535720
0.8624003352
0.8409074933
0.8613514013
0.8753895495
0.8458839841
0.8506977361
0.8719264985
0.8767122340
0.8529361814
0.8785192591
0.8483077267
0.8465643060
0.8526790898
0.8748142753
0.8554434756
0.8689210221
0.8405243055
0.8754086867
0.8421098289
0.8668095865
0.8643883629
0.8705430962
0.8804100780
0.8654254696
0.8368061395
0.8400075389
0.8642008723
0.8432106073
0.8520826398
0.8774066459
0.8606424512
0.8749283639
0.8681938947
0.8568827768
0.8653014979
0.8699796609
0.8587282534
0.8765416132
0.8730123988
0.8712055449
0.8765121021
0.8732805584
0.8556455737
0.8617081503
0.8437580623
0.8623163894
0.8494053535
0.8597838857
0.8700822809
0.8580787061
0.8708583863
0.8776870590
0.8500127055
0.8756022994
0.8616769510
0.8704180674
0.8775302742
0.8555676406
0.8486001817
0.8684885450
0.8478987585
0.8589151399
0.8651677173
0.8822784592
0.8791021741
0.8494107667
0.8662588871
0.8791656739
0.8611486043
0.8751942604
0.8810617402
0.8569279340
0.8451319967
0.8564872461
0.8531814006
0.8768931381
0.8524700148
0.8794541606
0.8662465911
0.8684255732
0.8769199166
0.8684625815
0.8590859852
0.8638084707
0.8712158757
0.8585944417
0.8758459855
0.8766274796
0.8735015010
0.8730003182
0.8575568704
0.8653641343
0.8440061947
0.8661287614
0.8661292158
0.8697476887
0.8574433069
0.8733664049
0.8772137827
0.8550358764
0.8722537696
0.8667188337
0.8766162569
0.8551264131
0.8454367683
0.8582853348
0.8646561677
0.8504337286
0.8597818360
0.8806746239
0.8774348130
0.8517853767
0.8632366594
0.8768181404
0.8582435670
0.8721276652
0.8828881648
0.8556966414
0.8458237218
0.8560105287
0.8569825854
0.8579160107
0.8779676017
0.8890686354
0.8879103881
0.8748353063
0.8531750699
0.8491647655
0.8552676587
0.8554409075
0.8765332985
0.8461529739
0.8393416598
0.8683784723
0.8911828223
0.8557380813
0.8464736387
0.8568596021
0.8782137899
0.8589055729
0.8558949469
0.8914922163
0.8678147515
0.8501202334
0.8828365748
0.8864113097
0.8613533836
0.8531675362
0.8658376066
0.8658325121
0.8523783903
0.8426655530
0.8441682588
0.8862926494
0.8623659293
0.8713781593
0.8545369734
0.8488733803
0.8521684211
0.8781476416
0.8478030518
0.8493490413
0.8502050216
0.8460431136
0.8808070321
0.8579586764
0.8787564027
0.8905040879
0.8859480984
0.8729032690
0.8519124896
0.8492024657
0.8526759413
0.8750015013
0.8400394853
0.8713741593
0.8896255968
0.8551591190
0.8465582122
0.8559512256
0.8764114243
0.8583727595
0.8571792364
0.8916755849
0.8617114991
0.8477984782
0.8850859653
0.8831861583
0.8601104466
0.8558282906
0.8689166664
0.8596302427
0.8542536365
0.8467902843
0.8407295714
0.8850748692
0.8623978671
0.8545854486
0.8483013195
0.8538425415
0.8505389456
0.8792140241
0.8498993366
0.8501239705
0.8509365471
0.8775124914
0.8742638935
0.8557292656
0.8558933216
0.8732781887
0.8545253608
0.8730140859
0.8705629135
0.8505372119
0.8722043084
0.8657544516
0.8510961837
0.8529477708
0.8616011095
0.8790351570
0.8567847428
0.8629568253
0.8441351466
0.8509357433
0.8702634758
0.8629550749
0.8504713924
0.8700790936
0.8552418103
0.8708302678
0.8738598903
0.8744422033
0.8554792238
0.8790587365
0.8632808412
0.8568040636
0.8774124516
0.8664561908
0.8759246135
0.8438013919
0.8520830304
0.8542871269
0.8699771596
0.8595783215
0.8715074535
0.8780793779
0.8746882080
0.8567964803
0.8433547971
0.8771026970
0.8821666590
0.8620666443
0.8693665476
0.8826883974
0.8572511317
0.8483955617
0.8693723863
0.8750805029
0.8579111222
0.8773112835
0.8645576538
0.8555954041
0.8568521167
0.8716927410
0.8753412373
0.8551491814
0.8571768740
0.8753516473
0.8545707753
0.8712152348
0.8715055090
0.8716665167
0.8502019609
0.8730312114
0.8664135999
0.8552876911
0.8529273656
0.8650880717
0.8568865367
0.8416896079
0.8523763075
0.8695559283
0.8597588762
0.8652184304
0.8713953946
0.8507257908
0.8746899705
0.8787131208
0.8791908871
0.8601952703
0.8564283166
0.8751583002
0.8770032520
0.8410144634
0.8532382994
0.8697445524
0.8826693542
0.8753536591
0.8768984015
0.8581307317
0.8468774940
0.8794666460
0.8822061962
0.8566781987
0.8441105154
0.8730340862
0.8810772663
0.8579527932
0.8764868125
0.8680542155
0.8543839030
0.8559427796
0.8662900910
0.8542510050