<VTKFile type="UnstructuredGrid" version="0.1">
	<UnstructuredGrid>
		<Piece NumberOfPoints="1862" NumberOfCells="3498">
			<CellData>
				<DataArray type="Int32" Name="type" NumberOfComponents="1" Format="ascii">
0
0
0
0
0
0
0
0
0
0
0
0
0
0
0
0
1
0
0
1
0
0
0
0
0
0
0
0
0
0
0
0
0
1
0
0
0
0
0
0
0
0
0
0
0
0
0
0
0
0
1
0
0
0
0
0
0
0
0
0
0
1
0
0
0
0
0
0
0
0
0
0
0
0
0
0
0
0
0
0
0
0
0
0
0
0
0
0
0
0
0
0
0
0
0
0
0
0
0
0
0
0
0
0
0
0
0
0
0
0
0
0
0
0
0
0
0
0
0
0
0
0
0
1
0
0
0
0
0
0
0
0
0
0
0
0
0
0
0
0
0
0
0
0
0
0
0
0
0
0
0
1
0
1
1
0
0
0
0
0
0
0
0
0
0
0
0
0
1
0
1
0
0
0
0
1
0
0
0
0
0
0
0
0
1
1
0
0
0
0
0
1
0
0
0
0
0
0
0
0
1
0
0
0
0
0
0
0
0
0
0
0
0
0
0
0
0
0
0
0
0
0
0
0
0
0
0
0
0
0
0
0
0
1
0
0
0
0
0
0
0
0
0
0
0
0
0
0
0
0
0
0
0
0
0
0
0
0
0
0
0
0
0
0
0
0
0
0
0
0
0
0
0
0
0
0
0
0
0
0
0
1
0
0
0
0
0
0
0
0
0
0
0
0
0
0
0
0
0
0
0
0
0
0
0
0
0
0
0
0
0
0
0
0
0
0
0
0
0
0
0
0
0
0
0
0
0
0
0
0
0
0
1
0
0
0
0
0
0
0
0
0
0
0
0
0
0
0
0
0
0
0
0
0
0
0
0
0
0
0
0
0
0
0
0
0
0
0
0
0
0
0
0
0
0
0
0
0
0
0
0
0
0
0
0
0
0
0
0
0
1
0
0
0
0
0
0
0
0
0
0
0
0
0
0
0
0
0
0
0
0
0
0
0
0
0
0
0
0
0
0
0
0
0
0
0
0
0
0
0
0
0
0
0
0
0
0
0
0
0
0
0
0
0
0
0
0
0
0
0
0
0
0
0
0
0
0
0
0
0
0
0
0
0
0
0
0
0
0
0
0
0
0
0
0
0
0
0
0
0
0
0
0
0
0
0
0
0
0
0
0
0
0
0
0
0
0
0
0
0
0
0
0
0
0
0
0
0
0
0
0
0
0
0
0
0
0
0
0
0
0
0
0
1
0
0
0
0
0
0
0
0
0
0
0
0
0
0
0
0
0
0
0
1
0
0
0
0
0
0
0
0
0
0
0
0
0
0
0
0
0
0
0
0
0
0
0
0
0
0
0
0
0
0
0
0
0
0
0
0
0
0
0
0
0
0
0
0
0
0
0
0
0
0
0
0
0
1
0
0
0
0
0
0
0
0
0
0
0
0
0
0
0
0
0
0
0
0
0
0
0
1
0
0
0
0
0
0
0
0
0
0
0
0
0
0
0
0
0
0
0
1
0
0
0
1
0
0
0
0
0
0
0
0
0
0
0
0
0
0
0
0
0
0
0
0
0
0
0
0
0
1
0
0
0
0
0
0
0
1
0
0
0
0
0
0
0
0
0
0
0
0
0
0
0
0
0
0
0
0
0
0
0
0
0
0
1
0
0
0
0
0
0
0
1
0
0
0
0
0
0
1
0
0
0
0
0
0
0
0
0
0
0
0
0
0
0
0
0
0
0
0
0
0
0
0
0
0
0
0
0
0
0
0
0
0
0
0
0
0
1
0
0
0
0
0
1
0
0
0
0
0
0
0
1
0
0
0
0
0
0
0
0
0
0
0
0
0
1
0
0
0
0
0
0
0
0
0
0
0
0
0
0
0
0
0
0
0
0
0
0
0
0
0
0
0
0
0
0
0
0
0
0
0
0
0
0
0
0
0
0
0
0
0
0
0
0
0
0
0
0
0
1
0
0
0
0
0
0
0
0
0
0
0
0
0
0
0
0
0
0
0
1
0
0
0
0
0
0
0
0
0
1
0
0
0
0
0
0
0
0
0
0
0
0
0
0
0
0
0
0
0
0
0
0
0
0
0
0
0
0
0
1
0
1
0
0
0
0
0
0
0
0
0
0
0
0
0
0
0
0
0
0
0
0
0
0
0
0
0
0
0
1
0
0
0
1
0
0
0
0
0
0
0
0
0
0
0
0
0
0
0
0
0
0
0
0
0
0
0
0
0
0
0
0
1
0
0
0
0
0
0
0
0
0
0
0
0
0
0
0
0
0
0
0
0
0
0
0
0
0
1
0
0
0
0
0
0
0
0
0
0
0
0
0
0
0
0
0
0
0
0
0
0
0
1
0
0
0
0
0
0
1
0
0
0
0
0
0
0
0
0
0
0
1
0
0
0
0
0
0
0
0
0
0
0
0
0
0
0
0
0
0
0
0
1
0
0
0
0
0
0
0
0
0
0
0
1
0
0
0
0
0
0
0
0
0
0
0
0
0
0
0
0
0
0
0
0
0
1
0
0
0
0
0
0
0
0
0
1
1
0
1
0
1
0
0
0
0
0
0
0
0
0
0
0
1
0
0
0
0
0
1
1
0
0
0
0
0
0
1
0
0
0
0
0
1
1
1
0
0
0
0
0
0
0
0
0
0
0
0
1
1
0
0
1
0
0
0
0
0
1
0
0
0
1
0
1
0
0
0
0
0
0
0
1
0
0
0
0
0
0
0
1
0
0
1
0
0
0
0
0
0
0
0
0
0
0
0
0
0
0
1
0
0
0
0
0
0
0
0
0
0
0
0
0
0
0
0
0
0
0
0
0
0
0
0
0
0
0
0
0
0
0
0
0
0
0
0
1
0
0
0
0
0
0
1
0
0
0
1
0
0
0
0
0
0
0
0
0
0
0
1
0
0
0
0
0
0
0
0
0
0
0
0
0
0
0
0
0
0
0
0
0
0
0
0
0
0
0
0
0
0
0
0
0
0
0
0
0
0
0
0
1
1
0
0
0
0
0
0
0
0
0
0
0
0
0
1
0
0
0
0
0
0
0
0
0
0
0
0
0
0
0
0
0
0
0
0
0
0
0
0
0
0
0
0
0
0
0
0
0
0
0
0
0
0
0
0
0
0
0
0
0
0
0
0
0
0
0
0
0
0
0
0
0
0
0
0
0
0
0
0
0
0
0
0
0
0
0
0
1
1
0
0
0
0
0
0
0
0
1
0
0
0
0
0
0
0
0
0
0
0
0
0
0
0
0
0
0
0
0
0
0
0
1
0
0
0
0
0
0
0
0
0
0
0
0
0
0
0
0
1
0
0
0
0
0
0
0
0
0
0
0
0
0
0
0
0
0
0
0
0
0
0
0
0
0
0
0
0
0
0
0
0
0
0
0
0
0
0
0
0
0
0
0
0
0
0
0
0
0
0
0
0
0
0
0
0
0
0
0
0
0
0
0
0
0
0
0
0
0
0
0
0
0
0
0
0
0
0
0
0
0
0
0
0
0
0
0
0
0
0
1
1
0
0
0
0
0
1
0
0
0
0
0
0
0
0
0
0
0
0
1
0
0
0
0
0
0
0
0
0
0
0
0
0
0
0
0
0
0
0
0
0
0
0
0
0
0
0
0
0
0
0
0
0
0
0
0
0
0
0
0
0
0
0
0
0
0
0
0
0
0
0
0
0
1
0
1
0
0
0
0
0
0
0
0
0
0
0
0
0
0
0
0
0
0
1
0
0
0
0
0
0
0
0
0
0
0
0
0
0
0
0
0
0
0
0
0
0
0
0
0
0
0
0
0
0
0
0
0
0
0
0
0
0
0
0
0
0
0
0
0
0
0
0
0
0
0
0
0
0
0
0
0
0
0
0
0
0
0
0
0
0
0
0
0
0
1
0
0
0
0
0
0
0
0
0
0
1
0
0
0
0
0
0
0
0
0
0
0
0
0
0
0
0
0
0
0
0
0
0
0
0
0
0
0
0
0
0
0
0
0
0
0
0
0
1
0
0
0
0
0
0
0
0
0
0
0
0
0
0
0
0
0
0
0
0
0
0
0
0
0
0
0
0
0
0
0
0
0
0
0
0
0
0
0
0
0
0
0
0
0
0
0
0
0
0
0
0
0
0
0
0
0
0
0
0
0
0
0
0
0
0
0
0
0
0
0
0
0
0
0
0
0
0
0
0
0
1
0
0
0
0
0
0
0
0
0
0
0
0
0
0
0
0
0
0
0
0
0
0
0
0
0
0
0
0
0
0
0
0
0
0
0
0
0
0
0
0
0
0
0
0
0
0
0
0
0
0
0
0
0
0
0
0
0
0
0
0
0
0
0
0
0
0
0
0
0
0
0
0
0
0
0
0
0
0
0
0
0
0
0
0
0
0
0
0
0
0
0
0
0
0
0
0
0
0
0
0
0
0
0
0
0
0
0
0
0
0
0
0
0
0
0
0
0
0
0
0
0
0
0
1
0
0
0
0
0
0
0
0
0
0
0
0
0
0
0
0
0
0
0
0
0
0
0
0
0
0
0
0
0
0
0
0
0
0
0
0
0
0
0
0
0
0
0
0
0
0
0
0
0
0
0
0
0
0
0
0
0
0
0
0
0
0
0
0
0
0
0
0
0
0
0
0
0
0
0
0
0
0
0
0
0
1
0
0
0
0
0
0
0
1
0
0
0
0
0
0
0
0
0
0
0
0
0
0
0
0
0
0
0
0
0
0
0
0
0
0
0
0
0
0
0
0
0
0
0
0
0
1
0
0
0
0
0
0
0
0
0
0
0
0
0
0
0
0
0
0
0
0
0
1
0
0
0
0
0
0
0
0
0
0
0
0
1
1
0
0
0
0
0
0
0
0
0
0
0
0
0
0
0
1
1
0
1
0
0
0
0
0
0
0
0
0
1
0
0
0
0
0
0
1
0
0
0
0
0
0
0
0
0
0
1
0
0
0
0
1
0
1
0
0
0
0
0
0
0
1
0
0
0
1
0
0
0
1
0
1
1
0
0
1
1
0
0
0
1
0
0
0
1
0
0
0
0
0
0
0
0
0
1
0
0
0
0
0
0
1
0
0
0
0
0
0
0
0
0
0
0
0
0
0
0
0
0
0
0
0
0
0
0
0
0
0
0
1
0
0
1
0
0
0
0
0
0
0
0
0
0
0
0
0
0
0
0
0
0
1
0
0
1
0
0
0
0
0
0
0
0
0
0
0
1
0
0
1
0
0
0
0
0
0
0
0
0
0
0
1
1
0
0
0
0
0
0
0
0
0
0
0
0
1
0
0
0
0
0
0
0
0
0
0
0
0
0
0
0
0
0
1
0
0
0
0
0
0
0
0
0
0
0
0
0
0
0
0
0
1
0
0
0
0
0
0
0
0
0
0
0
0
0
0
0
0
0
0
0
0
0
0
0
0
0
0
0
0
0
0
0
0
0
0
0
0
0
0
0
0
1
0
0
0
0
0
0
0
0
0
0
0
0
0
0
0
0
0
0
0
0
0
0
0
0
0
0
0
0
0
0
0
0
0
0
0
0
0
0
0
0
0
0
0
0
0
1
0
0
0
0
0
0
0
0
0
0
0
0
0
0
0
0
0
0
0
0
0
0
0
0
0
0
0
0
0
0
0
0
0
0
0
0
0
0
0
0
0
0
0
0
0
0
0
1
0
0
0
0
0
0
0
0
0
0
1
0
0
0
0
0
0
0
0
0
0
0
0
0
0
0
1
0
0
1
0
0
0
0
0
0
0
0
0
0
0
0
0
0
0
0
0
0
0
0
0
0
0
1
0
0
0
0
0
0
0
0
0
0
0
0
0
0
0
0
0
0
0
0
0
0
0
0
0
0
0
0
0
0
0
0
0
0
0
1
0
0
0
0
0
0
0
0
0
0
0
0
0
0
0
0
0
0
0
0
0
0
0
0
0
0
0
0
0
0
0
0
0
0
0
0
0
0
0
0
0
0
0
0
0
0
0
0
0
0
0
0
0
0
0
0
0
0
0
0
0
0
0
0
0
0
0
0
0
0
0
0
0
0
0
0
1
0
0
0
0
0
0
0
0
0
0
0
0
0
0
0
0
0
0
0
0
0
0
0
0
0
0
0
0
0
0
0
0
0
0
0
0
0
0
0
1
0
0
0
0
0
0
0
0
0
0
0
0
1
1
0
0
0
0
0
0
0
0
0
0
0
0
0
0
0
0
0
0
0
0
0
0
0
0
0
0
0
0
0
0
0
0
0
0
0
0
0
0
0
0
0
0
0
0
0
0
0
0
0
0
0
0
0
0
0
0
0
0
0
0
0
0
0
0
0
0
0
0
0
0
0
0
0
0
0
0
0
0
0
0
0
0
0
0
0
0
0
0
0
0
0
0
0
0
0
0
0
0
0
0
0
1
0
1
0
0
0
0
0
0
0
1
1
1
1
0
0
0
0
0
0
0
0
0
0
0
0
0
0
0
0
0
0
0
0
0
0
0
0
0
0
0
0
1
1
0
0
0
0
0
0
0
0
0
0
0
0
0
0
0
0
0
0
1
0
0
0
0
0
0
0
1
1
0
1
1
0
0
1
0
0
0
0
0
0
0
1
0
1
0
0
0
0
0
0
0
0
0
0
0
0
0
0
0
0
0
0
0
0
0
0
0
0
0
0
0
1
1
0
0
0
1
1
0
0
0
0
1
0
0
1
0
1
0
0
0
0
0
1
0
0
0
1
0
0
0
0
0
0
0
0
0
0
0
0
0
0
0
0
0
0
0
0
0
0
0
0
0
0
0
1
0
0
0
0
0
0
1
0
0
0
0
0
0
0
0
0
0
0
0
0
0
0
0
0
0
0
0
0
0
0
0
0
0
0
0
0
1
0
1
0
0
0
0
0
0
0
1
0
0
0
0
0
0
0
0
0
0
0
1
0
0
0
0
0
0
0
0
0
1
0
0
0
0
0
0
0
1
0
0
0
0
0
0
0
1
0
0
0
0
0
0
0
0
0
0
0
0
0
0
0
0
0
0
0
1
0
1
0
0
0
0
0
1
0
0
0
0
0
0
0
0
0
0
0
0
0
0
0
0
0
0
0
0
0
0
0
0
0
1
0
1
0
0
0
0
0
0
0
0
0
1
0
0
0
0
0
1
0
0
0
0
0
0
0
0
0
0
0
0
0
0
0
1
0
0
0
0
0
0
0
0
1
0
0
0
0
0
0
0
0
0
0
0
0
0
0
0
0
0
0
0
0
0
0
0
0
0
0
0
0
0
0
1
0
0
0
0
0
0
0
0
0
0
0
0
0
0
0
0
1
0
0
0
0
0
0
0
0
1
0
0
0
0
0
0
0
0
0
1
0
0
0
0
0
1
0
0
0
0
0
0
0
0
0
0
0
0
0
0
0
0
0
0
0
1
0
0
0
0
0
0
1
0
0
0
0
0
0
0
0
1
0
0
0
0
0
0
0
0
0
0
0
0
0
0
1
0
0
1
0
0
0
1
0
0
0
0
0
0
0
0
0
0
0
0
0
0
0
0
1
0
0
0
0
0
0
0
0
0
0
1
0
1
0
0
0
0
0
0
1
0
0
0
0
0
0
0
0
0
0
0
0
0
0
0
0
0
0
0
0
0
0
0
0
0
0
0
1
1
0
0
0
0
0
0
1
0
0
0
0
0
0
0
0
0
0
0
0
0
1
0
0
0
0
0
0
0
1
0
0
0
0
0
0
0
0
0
0
0
0
0
0
0
0
0
0
0
0
0
0
0
0
0
0
0
1
0
0
0
0
0
0
0
0
0
0
1
0
0
1
0
0
0
0
0
0
0
0
0
0
0
0
0
0
0
0
0
0
0
0
0
0
0
0
0
0
0
0
0
1
0
0
0
0
0
0
0
1
0
0
0
0
0
0
0
1
0
0
0
0
1
0
0
0
0
0
0
0
0
0
0
0
1
0
1
0
0
0
1
0
				</DataArray>
				<DataArray type="Float64" Name="h" NumberOfComponents="1" Format="ascii">
0.9668240391
0.9668660800
0.9680141669
0.9723268526
0.9653068538
0.9688064556
0.9689062867
0.9709755336
0.9706395202
0.9743583716
0.9734116414
0.9700772429
0.9634759699
0.9751483723
0.9683137964
0.9598828516
0.9721314775
0.9706714366
0.9613295072
0.9747517071
0.9672845025
0.9563792578
0.9541317983
0.9645582634
0.9730900250
0.9641706864
0.9403743333
0.9252264313
0.9569459375
0.9754913636
0.9756834414
0.9597427726
0.9513936030
0.9693464660
0.9571596343
0.9584365494
0.9624912970
0.9418301512
0.9150790774
0.9642982531
0.9606337428
0.9402410327
0.9466163743
0.9452031641
0.9604876176
0.9340850898
0.9489981860
0.9522347760
0.8618201242
0.8679225792
0.9654974671
0.9487430075
0.9512773805
0.9247798108
0.9510526206
0.9321983260
0.9418777952
0.9421956678
0.9381353348
0.9357022178
0.9233034106
0.9287816983
0.8715664403
0.9536141091
0.9363874910
0.9150120563
0.8720638007
0.8792686787
0.9300677314
0.9363297698
0.9356350099
0.9550542147
0.9267728361
0.9200327028
0.9309653640
0.8782248799
0.9422801481
0.9214605515
0.9476415201
0.8972590195
0.9058877913
0.9142288574
0.8415635330
0.8840351288
0.8949185174
0.8842671360
0.8967298480
0.8820149911
0.9129153511
0.8452210581
0.8895197323
0.8867537044
0.9135028545
0.8480936014
0.8930220578
0.8944693209
0.8766174975
0.9003182281
0.9063080156
0.8965506806
0.8451513490
0.9056336061
0.9007978860
0.9475261608
0.9747005589
0.8714184475
0.8696552057
0.8558877957
0.9234630560
0.9027743100
0.8522057752
0.8488280775
0.8989974041
0.8816689523
0.9037334497
0.8566657486
0.9082403837
0.9774542343
0.8616028980
0.9009469552
0.9768000477
0.8855389148
0.8633099356
0.9821987360
0.8911843202
0.8554943784
0.9079813437
0.9818661929
0.8634255213
0.8526349897
0.8694336493
0.8803462747
0.9019897253
0.8568971411
0.9778925918
0.8708816933
0.9650908899
0.8518069633
0.8869410818
0.9498719662
0.9813187042
0.9806411991
0.8616563278
0.9396188291
0.8728713515
0.8797411681
0.9571438968
0.8381749145
0.9802023603
0.8342669497
0.9668329248
0.8503577960
0.8460479363
0.8358679765
0.8954205294
0.8461893928
0.8395374877
0.9773088622
0.8353319848
0.9843470600
0.9439475382
0.8399546865
0.9600573269
0.9812481598
0.9795570533
0.8429046576
0.9264395465
0.9540438576
0.9846225815
0.8417407667
0.8421012109
0.9858119480
0.8367309695
0.9761980057
0.9166796376
0.8316196631
0.9316434747
0.8330126062
0.8324108755
0.9808225493
0.8471737404
0.8997137490
0.9838710448
0.8508455839
0.9855645992
0.9883549490
0.9110466895
0.8329219434
0.9854730258
0.9897669299
0.8820978332
0.8327504440
0.9864921258
0.8940765831
0.8319998325
0.8368833936
0.9758473589
0.8648019716
0.8767085490
0.8300248846
0.9898205411
0.8476205956
0.9890132783
0.8320114918
0.8482046675
0.9802888179
0.9494893252
0.9645761367
0.8596874326
0.9267435519
0.8772581083
0.9871391294
0.9781260618
0.9817846261
0.9577253864
0.8596463413
0.9392891422
0.9753549257
0.8949142891
0.9837752381
0.8434584371
0.8418924942
0.9117372580
0.8433599962
0.8361174678
0.8304268513
0.8383348840
0.8441790773
0.8329455783
0.8406036455
0.8313652869
0.8426910048
0.8413041630
0.8294542952
0.8325303817
0.8440444268
0.8657126147
0.9393484766
0.9851423385
0.9132314222
0.8621917605
0.9572034938
0.9747239820
0.9173488497
0.9601345045
0.9435022104
0.9770938538
0.8835062965
0.9492193291
0.9697718983
0.9273763720
0.8800301072
0.9721432500
0.8486351066
0.8452578078
0.9768947801
0.9315865725
0.9528614534
0.9817833948
0.8397505324
0.8971817980
0.8203904953
0.8276683158
0.8320322858
0.8328389362
0.8318670583
0.8291886748
0.8280427811
0.8285270175
0.8346540191
0.8351626822
0.9010277404
0.8396013584
0.8390432716
0.8394376094
0.8197924224
0.8239773632
0.8303754622
0.8333623071
0.8292429181
0.8380923561
0.8280510608
0.8294378677
0.8311842363
0.8354859741
0.8399299769
0.8371192180
0.9281048210
0.9713138199
0.9686204569
0.9318272263
0.8520436009
0.9484980741
0.9520281831
0.9001183432
0.8504127596
0.9030972338
0.9392371576
0.9628103350
0.9768928045
0.9701919463
0.9429497878
0.8691396264
0.8349799837
0.8358993300
0.9149804041
0.8667906404
0.9184420636
0.9656590764
0.8099534470
0.8247012525
0.8144343778
0.8267950232
0.8173039085
0.8312973326
0.8295685125
0.8836492906
0.8335117886
0.8276381301
0.8863675402
0.8214513295
0.8175631009
0.8273890970
0.8304679314
0.8110394804
0.8212801635
0.8181160713
0.8278787643
0.8273626096
0.8317283985
0.8340926460
0.8295691920
0.8263369400
0.8117481773
0.8244772579
0.8157766521
0.8299056246
0.9196185998
0.8209118926
0.8880376518
0.8419255274
0.8900455275
0.9641999030
0.8416545823
0.9385018739
0.9165297511
0.9421901020
0.9610195315
0.8175215330
0.8046065036
0.8285110841
0.8057099925
0.9318509520
0.9578527268
0.8179568832
0.9028007359
0.8067345850
0.8569018983
0.9054815953
0.8088826326
0.8114246663
0.8140569489
0.9701899720
0.8572736763
0.8277500814
0.9283717223
0.8131577885
0.8098791607
0.8024727413
0.9619177898
0.8061841117
0.8124402830
0.9545124689
0.8257551741
0.8201411312
0.8126176678
0.8285466858
0.9194264195
0.8267995688
0.8047078029
0.8115117351
0.8270797121
0.8247743895
0.8724670055
0.8204515709
0.8734575892
0.8078029940
0.8130606894
0.8049509064
0.8650603330
0.8243154867
0.8084810726
0.8168111840
0.8265967538
0.8273336405
0.8163760306
0.9068143163
0.8903625667
0.8822341933
0.8395032737
0.8036303036
0.8293916231
0.8477202734
0.8237414488
0.8323602199
0.8260671108
0.8240740609
0.8080365189
0.8097239736
0.8561504493
0.8087851684
0.8081378413
0.8111849331
0.8087070131
0.9076615983
0.8186588247
0.8188923377
0.8786727328
0.8082894911
0.8021618476
0.8163075429
0.8194691779
0.9313203830
0.8147579187
0.8151381473
0.8043212127
0.8206477197
0.9558126934
0.8102811686
0.8352241879
0.8027484609
0.8155091993
0.8071972852
0.8145492107
0.8058234593
0.8036830501
0.8159961453
0.8151921559
0.8220676293
0.8191622086
0.8132754719
0.8169623709
0.9202890489
0.8142917949
0.8179291274
0.8934420433
0.8010667280
0.8167200313
0.8074490661
0.8122481955
0.8113213460
0.8197033801
0.9619160786
0.8054248826
0.8488387921
0.8194729729
0.8117505749
0.8135993693
0.8111507163
0.8145214046
0.9487238061
0.8237051348
0.8966162213
0.8224291941
0.8635828697
0.8126330759
0.8020019779
0.8027189843
0.8335666871
0.9199347142
0.8258182558
0.8699121267
0.8206673173
0.8435203676
0.8098309049
0.8053386105
0.8149623949
0.8572276728
0.9460310397
0.9124684794
0.9056132647
0.8223964803
0.9088231189
0.8238925943
0.8272795760
0.8194159175
0.8241873082
0.8981847438
0.8087557130
0.8831656737
0.8203980320
0.8049279585
0.8158558422
0.9384155129
0.9068204207
0.8737959756
0.8834717735
0.8222955423
0.8166579128
0.8958538780
0.8286341066
0.8224533380
0.8654620152
0.8822423110
0.8395067546
0.8563919520
0.8030639491
0.9526068408
0.8152628691
0.8233512548
0.8981767410
0.8321409056
0.8225115395
0.8699247710
0.8212786041
0.9460317149
0.8169647810
0.8157254345
0.9419075433
0.8700490325
0.8321507758
0.8117822314
0.8173790465
0.8162806090
0.8949456018
0.8165877622
0.8887339842
0.8166703792
0.8235279807
0.8339651155
0.8117625684
0.8966282982
0.8109377313
0.9167489884
0.9199353402
0.8399062028
0.9384146923
0.8834854192
0.9526059553
0.8235313374
0.8224051724
0.8465323421
0.8722032620
0.9489392368
0.8602214609
0.8827100179
0.8958101950
0.8435300093
0.8533982370
0.8775616819
0.8141640383
0.8662938543
0.9063595543
0.8290149931
0.9343678631
0.8253874013
0.8246308652
0.8824966910
0.8127787313
0.8140048128
0.8451596513
0.8873305407
0.8136019864
0.9088297747
0.8339422171
0.8152079325
0.8564033456
0.8020040408
0.8252371810
0.8197205868
0.8573631016
0.8207502852
0.8230972367
0.8215991530
0.8021608021
0.9308166194
0.8105927631
0.8208563068
0.8225088249
0.8427726286
0.8752904923
0.8074693563
0.8286318549
0.8811809160
0.8219849263
0.9061326335
0.8220738795
0.8112091912
0.8010626215
0.8718659978
0.8206678232
0.8405197421
0.8733996691
0.8342877151
0.8694954808
0.8054271253
0.8332137671
0.9379435932
0.8176747195
0.8489078062
0.8276957722
0.8531637334
0.8173989954
0.8861327793
0.8043308545
0.8671296275
0.8518649499
0.8236501209
0.8188991115
0.8712677325
0.8574790523
0.9150510478
0.8253777920
0.8734975083
0.8208581161
0.8964708744
0.8271536030
0.9167521537
0.8573709381
0.8339724175
0.8949562785
0.8122859516
0.8231485101
0.9232151839
0.9419086654
0.8641898382
0.8696384068
0.8350177123
0.9343697739
0.8671341081
0.8518654069
0.8703208573
0.8644303622
0.8246371013
0.8700583780
0.8451671343
0.9063665387
0.8358684209
0.8329928838
0.8326421607
0.8242467893
0.9489387570
0.8567980317
0.8459750542
0.8397945547
0.8159082670
0.8262540231
0.8290167040
0.8624611843
0.8222187834
0.8685743336
0.8694377531
0.9237970031
0.8990769839
0.8666165050
0.8489568639
0.8314079962
0.8827212644
0.8342766459
0.8796864602
0.9303159877
0.9080067538
0.8301482487
0.8361141156
0.8309383263
0.8315853968
0.8690326457
0.8590621072
0.9162936953
0.8896089616
0.8247901590
0.8255764965
0.8399081570
0.8609682841
0.8461811632
0.8690801687
0.8380722560
0.8681948795
0.8664389064
0.8357655106
0.8389268691
0.8552191816
0.8601465727
0.8409431619
0.8638721032
0.8654030115
0.8682390806
0.8412339104
0.8365537687
0.8405055313
0.8684726542
0.8722167670
0.8690193317
0.8708083556
0.8695475148
0.8417701148
0.8432545628
0.8342380687
0.8387318470
0.8684999762
0.8433896436
0.8411187695
0.8712633142
0.8329948594
0.8333010337
0.8712698252
0.8420671604
0.8662980054
0.8355720074
0.8803126706
0.8760988050
0.8430863339
0.8734996618
0.8404175161
0.8311174848
0.8873361863
0.8277521635
0.8837181822
0.8788054124
0.8282383189
0.8213324437
0.9029478194
0.9632675254
0.9666066530
0.9666427244
0.9633025379
0.9711227657
0.9700663111
0.9733941021
0.9722524298
0.9642419760
0.9687930453
0.9653246051
0.9642644197
0.9706585797
0.9682905705
0.9688855702
0.9744065137
0.9722743168
0.9711383717
0.9686695189
0.9706286584
0.9723441687
0.9680258318
0.9612814227
0.9754822192
0.9641440273
0.9705235495
0.9709927401
0.9641535391
0.9730770070
0.9743689265
0.9615970270
0.9635278985
0.9677568941
0.9549166370
0.9582452353
0.9744136042
0.9756715475
0.9687109176
0.9693428822
0.9513548593
0.9596883935
0.9449141265
0.9642873590
0.9137830288
0.9721400190
0.9598961798
0.9465566817
0.9150201762
0.9705309592
0.9641741982
0.9606022510
0.9751618881
0.9747620093
0.9677664609
0.9541821960
0.9495012256
0.9564192040
0.9633269225
0.9616359830
0.9672893651
0.9583051448
0.9527743274
0.9245434024
0.9522356766
0.9549370400
0.9604727521
0.9654929602
0.9489392135
0.9252508140
0.9645711293
0.9569731874
0.9418530845
0.9180608932
0.9404442890
0.9580917927
0.9696176742
0.9138588191
0.9458244971
0.9561687672
0.9449663227
0.9512349121
0.9494971949
0.8611314456
0.8803667224
0.9528312783
0.9633382575
0.9593964400
0.9245445833
0.9584496394
0.9363435355
0.9418938663
0.9503832389
0.9571679151
0.8716443899
0.8793614067
0.9325303011
0.9624980135
0.9536040091
0.9458196840
0.9458522218
0.9413004729
0.9452350455
0.9200955972
0.9339175651
0.9550443763
0.9266767346
0.9375973132
0.9112128160
0.9275231837
0.9581019742
0.9215701080
0.9561725393
0.9402435849
0.9423004382
0.9356635517
0.9214043609
0.9310025287
0.9181433265
0.9337319546
0.9300855877
0.9600428852
0.9696865276
0.9363428042
0.9594086173
0.9503877722
0.9051731700
0.9325240316
0.8878664286
0.9460792361
0.8656083023
0.8617311128
0.9487535845
0.8802809412
0.9341119867
0.9142495243
0.8841253344
0.9313640040
0.8610454503
0.8678223733
0.9232884281
0.9287753646
0.9338035291
0.9146764363
0.9213303116
0.9381097214
0.9426407823
0.9338909198
0.8830313543
0.9168829159
0.9458396432
0.9600498802
0.9434400048
0.9510578363
0.9319792570
0.9375789967
0.9215625032
0.9322789041
0.9221312537
0.9301301368
0.9113214106
0.9247386991
0.9412809044
0.9356752747
0.8866644763
0.9421768947
0.9275885488
0.9135322788
0.8877533498
0.9475372727
0.9062568796
0.9313390591
0.8995178978
0.9460728392
0.9056452503
0.8679270816
0.9062145963
0.8907380502
0.9150181355
0.8452074525
0.8719657463
0.9520859460
0.9002194116
0.9132876079
0.8944323134
0.9365211530
0.8655160214
0.8965752841
0.8714673041
0.9052143706
0.8410205244
0.9221052883
0.9235041413
0.8489008384
0.9146618776
0.9300880970
0.8990449137
0.9434313513
0.8783386051
0.8504233324
0.9426262257
0.9214270557
0.9169852238
0.8864264237
0.8831328745
0.8522887104
0.9027921897
0.9319539110
0.9061859398
0.8409844118
0.9200788579
0.9132777810
0.8843546304
0.8855721253
0.9141112571
0.9520813285
0.9738880756
0.9365017833
0.8906614830
0.8950330032
0.8973553518
0.8967132736
0.8415167851
0.9058714685
0.9082960372
0.9476277247
0.8678552030
0.9768083479
0.8819720928
0.8996274263
0.8863960034
0.8803079529
0.8553402313
0.9695652393
0.8555590905
0.9024498651
0.8790891801
0.9128471360
0.8930485081
0.8480237048
0.8546324960
0.8451579039
0.8894753864
0.8639075874
0.9422252607
0.8912655498
0.9080561941
0.8503558828
0.8526525795
0.9007635268
0.8490998864
0.8523120714
0.9200322702
0.9739229066
0.9140331924
0.8710016276
0.9778908664
0.8709211365
0.9020829565
0.9747078460
0.8766411404
0.8727820153
0.8571799950
0.9806364024
0.8927235729
0.9695809703
0.8546104881
0.8815968463
0.8558154134
0.9651933020
0.9422108301
0.8790359065
0.9036624778
0.9801990154
0.8552562555
0.8616864696
0.9830706324
0.8566392216
0.9023915342
0.8797699573
0.8638547992
0.8697428605
0.9799921642
0.8668343665
0.8533180398
0.8468980154
0.8490699696
0.8709257527
0.9707579893
0.8555960004
0.8507020511
0.8879472743
0.9008431799
0.8522621800
0.8503826646
0.9774470430
0.8792670351
0.8615630247
0.9776254105
0.9668373102
0.8460780776
0.8954333431
0.9652113422
0.9830737628
0.9540287611
0.9795605115
0.8926399216
0.8379487370
0.9799959908
0.9819972138
0.8340522623
0.8609414393
0.8571246679
0.9822021704
0.8634055270
0.9439190557
0.9792488644
0.8634211295
0.8694012900
0.9781314814
0.9600501370
0.8701022511
0.8399812931
0.9818701589
0.8353582190
0.8879282164
0.9650974461
0.8568745377
0.8436198198
0.8567703774
0.8506542820
0.8509570285
0.8517764049
0.8367537658
0.9773312900
0.9726747527
0.8869246034
0.9776319545
0.8533136806
0.9707471297
0.8468706366
0.8669353488
0.8792476064
0.8417699575
0.8702658188
0.8555724567
0.8421276658
0.9762078055
0.8342395109
0.9838690124
0.8633819223
0.9792461215
0.9820010137
0.8447688109
0.8398769128
0.8350020776
0.9396652918
0.8381582486
0.9571609767
0.9808186671
0.8340290944
0.9781390382
0.8609453942
0.9820773796
0.9813204719
0.8471810177
0.8700833468
0.9315870209
0.8774841878
0.9498956807
0.8379178043
0.9833813298
0.9854709732
0.8461672415
0.8395122162
0.9726627569
0.8530250275
0.8435888410
0.9797808369
0.9773392684
0.8568057822
0.9855630753
0.8509255837
0.8358438995
0.9772982651
0.8702466463
0.9109461072
0.8572001311
0.8320218484
0.9265164276
0.9833849356
0.8447461511
0.8368840736
0.9820799432
0.8349788167
0.8774644692
0.8390259939
0.9859741138
0.8398473611
0.8634477087
0.9832091605
0.8327707270
0.8620329969
0.9812520524
0.8428986170
0.8939708033
0.8335542744
0.9843491886
0.8475053618
0.8312055659
0.9858136427
0.9890113734
0.9167645613
0.8320353381
0.8531217193
0.9846247783
0.9898177588
0.9797860205
0.8766096875
0.8312306394
0.8323898933
0.9787922208
0.9859756193
0.9832125354
0.9871376800
0.8335358569
0.8390287778
0.9805390605
0.8378318085
0.8998123546
0.8620128872
0.8315990535
0.8573094641
0.9875683537
0.9884169745
0.8330099241
0.9781243184
0.8595929685
0.8821901884
0.8313900645
0.8311806893
0.9897696169
0.8312035841
0.8319216712
0.8305303002
0.8509538850
0.9883563882
0.8328991874
0.8432683221
0.9770937768
0.9434962315
0.9726525484
0.9601457060
0.8648845640
0.9884189549
0.8426776345
0.9849932609
0.9172982770
0.9704064347
0.9787907800
0.8656594446
0.9864932721
0.9862408430
0.8378214208
0.9758479339
0.9833394648
0.9528645364
0.9663887794
0.8485807277
0.9315604330
0.9721444862
0.8834404023
0.9875699211
0.9851422269
0.9805412124
0.8307535653
0.8330902768
0.8481751369
0.8318957855
0.8399672090
0.9009574709
0.8305016052
0.8394160635
0.8291625520
0.8294526598
0.8381381829
0.8354376101
0.8370170962
0.8279853905
0.8396513033
0.8299960129
0.8397647109
0.8327333995
0.8285496966
0.8360970292
0.8318655164
0.8389748279
0.8773376999
0.9318227818
0.9639902378
0.9837755249
0.9030609372
0.8520312076
0.9704012443
0.8427435122
0.9726479484
0.9820220631
0.8299865731
0.9520435607
0.9713142591
0.9849942271
0.9267869675
0.9645668961
0.9494961210
0.9802882528
0.8949963398
0.9429569351
0.9656637846
0.9862413925
0.9184219215
0.8690965974
0.9753551002
0.8597177807
0.8358642615
0.9594883729
0.9792011629
0.9393092829
0.9663798653
0.9577253083
0.9833383871
0.8426418062
0.8863150517
0.8224753468
0.8157337806
0.8211846620
0.8272833850
0.8414261662
0.8360776730
0.8325247176
0.8278864450
0.8330234216
0.8294284017
0.8340290992
0.8317174216
0.8341194575
0.9118055853
0.8307288954
0.8405477616
0.8440681989
0.8433328250
0.8172736707
0.8174935213
0.8245997608
0.8295217954
0.8362310619
0.8382937843
0.8354301011
0.8268078419
0.8331442210
0.8304091697
0.8304721388
0.8335307350
0.8330663170
0.8418381131
0.8442663418
0.9196125411
0.9561935799
0.9747223890
0.9820226396
0.9642005780
0.9393494106
0.8622157774
0.8216952407
0.9422037291
0.8300308948
0.9571892322
0.8900142194
0.8416563132
0.9132631245
0.9639804586
0.9318557245
0.9578587983
0.9791988094
0.9741446660
0.9492115340
0.8800680315
0.8277281325
0.9508841898
0.8453016454
0.9594738598
0.9054656072
0.8572204709
0.9273910518
0.9697699785
0.8080171170
0.8304663029
0.8096701125
0.8280381679
0.8198292146
0.8294033513
0.8333718527
0.8735860060
0.8354556823
0.8330485656
0.8311010376
0.8260613670
0.8165747348
0.8972323699
0.8167281154
0.8240820201
0.8237022815
0.8311771213
0.8077712376
0.8277841934
0.8129858317
0.8291797270
0.8225061911
0.8298824901
0.8320777653
0.8346377511
0.8351323907
0.8285475659
0.8247805546
0.8114953250
0.8200385076
0.8204584491
0.8270692593
0.8340113144
0.8186486999
0.8027540472
0.8175612784
0.8082870203
0.9281062891
0.9561822866
0.8178085105
0.8164322436
0.8786573420
0.8065497261
0.8352089135
0.9001422839
0.8063941851
0.8147504396
0.8180565279
0.9686189449
0.8504042321
0.8217226741
0.9313274131
0.9076521195
0.9484834148
0.8081387667
0.8144911493
0.8036900689
0.9558130818
0.8041818065
0.8112627617
0.9471151077
0.8200850770
0.8028068823
0.8236900883
0.8069600101
0.9392288426
0.9628073051
0.8167153328
0.8156693339
0.8934271701
0.8046343750
0.8488427951
0.9149918965
0.8086197486
0.8137569110
0.8162702012
0.9741418260
0.8671030553
0.8350054946
0.9408538352
0.9202881556
0.9508700640
0.8110975134
0.8119093919
0.8018796198
0.9669969337
0.8048350517
0.8139370165
0.9487281571
0.8600533853
0.8238748512
0.8146206019
0.8245498108
0.8332686496
0.8279327486
0.8087110680
0.8295637237
0.9124626258
0.9082737526
0.8879531563
0.8241860627
0.8831582940
0.8469927421
0.8049208428
0.8298731539
0.8117649137
0.8414471225
0.8299012368
0.8264037352
0.8263296995
0.8635502152
0.8166546068
0.8836931988
0.8110948121
0.8182123878
0.8620072964
0.8030471085
0.8654567882
0.8224222956
0.8098222768
0.8215532958
0.8276921694
0.8258132291
0.8125515916
0.8310903834
0.9184193298
0.9142620536
0.8882002491
0.8261710507
0.8809681615
0.8410480679
0.8027115012
0.8312825665
0.8165942574
0.8489045665
0.8274153300
0.8335632009
0.8276330797
0.8206443807
0.8099780276
0.8145171086
0.8572237322
0.8053090162
0.8061026129
0.8141211516
0.8143193562
0.8244899829
0.8157237133
0.8065433430
0.8117877190
0.8144019477
0.9165347274
0.8212860146
0.8143469870
0.8219530588
0.8212792884
0.8207425938
0.8880554329
0.8102096989
0.8014385966
0.8144928370
0.8014378077
0.8175257085
0.8159964708
0.9384918713
0.8173226555
0.8180664685
0.8066307935
0.8127793143
0.8101968571
0.8117702019
0.8236988776
0.9610185348
0.8087169065
0.8112657078
0.8419397548
0.8131594560
0.8163048659
0.8141571066
0.8139988206
0.8014268243
0.8109491375
0.8132553538
0.8063875252
0.8164367768
0.8144833333
0.9471064877
0.8175774516
0.8041715945
0.8038054928
0.8151240114
0.8046042931
0.8145261933
0.8184086680
0.8102836130
0.8245219380
0.8179372653
0.8098772318
0.8113102726
0.8144022461
0.9283680254
0.8178221190
0.8169662125
0.8218455337
0.8188481731
0.9028123922
0.8114298856
0.8011767847
0.8202241279
0.8202206897
0.8148648239
0.9408448284
0.8175237768
0.8179679710
0.8103161752
0.8116021028
0.8093073963
0.8219669084
0.9669944431
0.8039493767
0.8058263191
0.8088823799
0.8569093515
0.8175289347
0.8122775753
0.8142781213
0.8024669264
0.8087818632
0.8121590946
0.8048241295
0.8139464160
0.8144659425
0.9545098307
0.8285287415
0.8046367179
0.8057055039
0.9051712501
0.8243124807
0.8253809700
0.8173969950
0.8261672902
0.8724766260
0.9056205015
0.8164241041
0.8809757761
0.8207496593
0.8031607025
0.8036449003
0.8323637673
0.8176719718
0.9369103568
0.9082796909
0.9277822828
0.8273361784
0.8694442953
0.8779854742
0.8222193644
0.8240914695
0.8951374574
0.8255407592
0.8211304058
0.8600586556
0.8903710385
0.8334289795
0.8334330194
0.8496942104
0.8084900697
0.8088378578
0.8146808366
0.8561550557
0.8397120458
0.9521276296
0.9194311564
0.8105893593
0.8222928881
0.9017802322
0.8895937798
0.8253733849
0.9017227409
0.8228431917
0.9171580756
0.8257585846
0.8236521828
0.8173408920
0.8267959615
0.9046006222
0.8126937990
0.8882084105
0.8198251175
0.8047146374
0.8397149347
0.8159049172
0.9449352512
0.9142671220
0.9297417327
0.8279298884
0.8733931809
0.8919919781
0.8198358752
0.8204904360
0.9017873227
0.8262610480
0.8192337024
0.8650663002
0.8879616906
0.8410512797
0.8696233714
0.8636770203
0.8146342385
0.8049813864
0.8133333977
0.8620117698
0.9587238578
0.9184239352
0.8965099001
0.8165880053
0.8231388809
0.9121814200
0.8951297458
0.8366924647
0.8201260547
0.8340970938
0.9369068547
0.8780011853
0.8207455852
0.9521274463
0.8143397776
0.8191654979
0.8165961369
0.8524375968
0.8141166479
0.8734465311
0.9351718506
0.8643463971
0.8153571971
0.8634864787
0.8095431960
0.8978634202
0.8367037703
0.8479724578
0.8095344461
0.8018724724
0.8159964073
0.8755151568
0.8173147093
0.8167349407
0.8212758604
0.8110988901
0.8153640012
0.8624427245
0.8872822213
0.8141172176
0.8137702908
0.8247445274
0.8920288714
0.8061034534
0.9260635539
0.8143961546
0.8061726166
0.8226574540
0.8293334281
0.8145443266
0.8173198696
0.8803550016
0.8209277945
0.8152518920
0.8119094539
0.8100720357
0.8130512856
0.8310258675
0.8869656553
0.8100653394
0.8128550105
0.9051805968
0.8400111301
0.8087957473
0.9090657647
0.9277793994
0.8124438628
0.8405025048
0.9449344768
0.8920048667
0.8244570077
0.9587223974
0.8143951162
0.8226609571
0.8166735329
0.8253836289
0.8468754279
0.8132746657
0.8714413046
0.9419111099
0.8601439210
0.8754788027
0.8927777154
0.8497023709
0.8538311074
0.8087112973
0.8111409458
0.8179311128
0.8760944732
0.8140663700
0.8165925322
0.8132630251
0.8661564545
0.8985581390
0.8142858049
0.8292364019
0.8864763952
0.9274481714
0.8148618551
0.8130453029
0.8244542799
0.8251614257
0.8230823005
0.8803081151
0.8145263657
0.8145272650
0.8406000899
0.8844693810
0.8122425738
0.8144859338
0.9171605640
0.8344725902
0.8113131516
0.9186952200
0.9297396392
0.8184317036
0.8636988971