<VTKFile type="UnstructuredGrid" version="0.1">
	<UnstructuredGrid>
		<Piece NumberOfPoints="1862" NumberOfCells="3498">
			<CellData>
				<DataArray type="Int32" Name="type" NumberOfComponents="1" Format="ascii">
0
0
0
0
0
0
0
0
0
0
0
0
0
0
0
0
1
0
0
1
0
0
0
0
0
0
0
0
0
0
0
0
0
1
0
0
0
0
0
0
0
0
0
0
0
0
0
0
0
0
1
0
0
0
0
0
0
0
0
0
0
1
0
0
0
0
0
0
0
0
0
0
0
0
0
0
0
0
0
0
0
0
0
0
0
0
0
0
0
0
0
0
0
0
0
0
0
0
0
0
0
0
0
0
0
0
0
0
0
0
0
0
0
0
0
0
0
0
0
0
0
0
0
1
0
0
0
0
0
0
0
0
0
0
0
0
0
0
0
0
0
0
0
0
0
0
0
0
0
0
0
1
0
1
1
0
0
0
0
0
0
0
0
0
0
0
0
0
1
0
1
0
0
0
0
1
0
0
0
0
0
0
0
0
1
1
0
0
0
0
0
1
0
0
0
0
0
0
0
0
1
0
0
0
0
0
0
0
0
0
0
0
0
0
0
0
0
0
0
0
0
0
0
0
0
0
0
0
0
0
0
0
0
1
0
0
0
0
0
0
0
0
0
0
0
0
0
0
0
0
0
0
0
0
0
0
0
0
0
0
0
0
0
0
0
0
0
0
0
0
0
0
0
0
0
0
0
0
0
0
0
1
0
0
0
0
0
0
0
0
0
0
0
0
0
0
0
0
0
0
0
0
0
0
0
0
0
0
0
0
0
0
0
0
0
0
0
0
0
0
0
0
0
0
0
0
0
0
0
0
0
0
1
0
0
0
0
0
0
0
0
0
0
0
0
0
0
0
0
0
0
0
0
0
0
0
0
0
0
0
0
0
0
0
0
0
0
0
0
0
0
0
0
0
0
0
0
0
0
0
0
0
0
0
0
0
0
0
0
0
1
0
0
0
0
0
0
0
0
0
0
0
0
0
0
0
0
0
0
0
0
0
0
0
0
0
0
0
0
0
0
0
0
0
0
0
0
0
0
0
0
0
0
0
0
0
0
0
0
0
0
0
0
0
0
0
0
0
0
0
0
0
0
0
0
0
0
0
0
0
0
0
0
0
0
0
0
0
0
0
0
0
0
0
0
0
0
0
0
0
0
0
0
0
0
0
0
0
0
0
0
0
0
0
0
0
0
0
0
0
0
0
0
0
0
0
0
0
0
0
0
0
0
0
0
0
0
0
0
0
0
0
0
1
0
0
0
0
0
0
0
0
0
0
0
0
0
0
0
0
0
0
0
1
0
0
0
0
0
0
0
0
0
0
0
0
0
0
0
0
0
0
0
0
0
0
0
0
0
0
0
0
0
0
0
0
0
0
0
0
0
0
0
0
0
0
0
0
0
0
0
0
0
0
0
0
0
1
0
0
0
0
0
0
0
0
0
0
0
0
0
0
0
0
0
0
0
0
0
0
0
1
0
0
0
0
0
0
0
0
0
0
0
0
0
0
0
0
0
0
0
1
0
0
0
1
0
0
0
0
0
0
0
0
0
0
0
0
0
0
0
0
0
0
0
0
0
0
0
0
0
1
0
0
0
0
0
0
0
1
0
0
0
0
0
0
0
0
0
0
0
0
0
0
0
0
0
0
0
0
0
0
0
0
0
0
1
0
0
0
0
0
0
0
1
0
0
0
0
0
0
1
0
0
0
0
0
0
0
0
0
0
0
0
0
0
0
0
0
0
0
0
0
0
0
0
0
0
0
0
0
0
0
0
0
0
0
0
0
0
1
0
0
0
0
0
1
0
0
0
0
0
0
0
1
0
0
0
0
0
0
0
0
0
0
0
0
0
1
0
0
0
0
0
0
0
0
0
0
0
0
0
0
0
0
0
0
0
0
0
0
0
0
0
0
0
0
0
0
0
0
0
0
0
0
0
0
0
0
0
0
0
0
0
0
0
0
0
0
0
0
0
1
0
0
0
0
0
0
0
0
0
0
0
0
0
0
0
0
0
0
0
1
0
0
0
0
0
0
0
0
0
1
0
0
0
0
0
0
0
0
0
0
0
0
0
0
0
0
0
0
0
0
0
0
0
0
0
0
0
0
0
1
0
1
0
0
0
0
0
0
0
0
0
0
0
0
0
0
0
0
0
0
0
0
0
0
0
0
0
0
0
1
0
0
0
1
0
0
0
0
0
0
0
0
0
0
0
0
0
0
0
0
0
0
0
0
0
0
0
0
0
0
0
0
1
0
0
0
0
0
0
0
0
0
0
0
0
0
0
0
0
0
0
0
0
0
0
0
0
0
1
0
0
0
0
0
0
0
0
0
0
0
0
0
0
0
0
0
0
0
0
0
0
0
1
0
0
0
0
0
0
1
0
0
0
0
0
0
0
0
0
0
0
1
0
0
0
0
0
0
0
0
0
0
0
0
0
0
0
0
0
0
0
0
1
0
0
0
0
0
0
0
0
0
0
0
1
0
0
0
0
0
0
0
0
0
0
0
0
0
0
0
0
0
0
0
0
0
1
0
0
0
0
0
0
0
0
0
1
1
0
1
0
1
0
0
0
0
0
0
0
0
0
0
0
1
0
0
0
0
0
1
1
0
0
0
0
0
0
1
0
0
0
0
0
1
1
1
0
0
0
0
0
0
0
0
0
0
0
0
1
1
0
0
1
0
0
0
0
0
1
0
0
0
1
0
1
0
0
0
0
0
0
0
1
0
0
0
0
0
0
0
1
0
0
1
0
0
0
0
0
0
0
0
0
0
0
0
0
0
0
1
0
0
0
0
0
0
0
0
0
0
0
0
0
0
0
0
0
0
0
0
0
0
0
0
0
0
0
0
0
0
0
0
0
0
0
0
1
0
0
0
0
0
0
1
0
0
0
1
0
0
0
0
0
0
0
0
0
0
0
1
0
0
0
0
0
0
0
0
0
0
0
0
0
0
0
0
0
0
0
0
0
0
0
0
0
0
0
0
0
0
0
0
0
0
0
0
0
0
0
0
1
1
0
0
0
0
0
0
0
0
0
0
0
0
0
1
0
0
0
0
0
0
0
0
0
0
0
0
0
0
0
0
0
0
0
0
0
0
0
0
0
0
0
0
0
0
0
0
0
0
0
0
0
0
0
0
0
0
0
0
0
0
0
0
0
0
0
0
0
0
0
0
0
0
0
0
0
0
0
0
0
0
0
0
0
0
0
0
1
1
0
0
0
0
0
0
0
0
1
0
0
0
0
0
0
0
0
0
0
0
0
0
0
0
0
0
0
0
0
0
0
0
1
0
0
0
0
0
0
0
0
0
0
0
0
0
0
0
0
1
0
0
0
0
0
0
0
0
0
0
0
0
0
0
0
0
0
0
0
0
0
0
0
0
0
0
0
0
0
0
0
0
0
0
0
0
0
0
0
0
0
0
0
0
0
0
0
0
0
0
0
0
0
0
0
0
0
0
0
0
0
0
0
0
0
0
0
0
0
0
0
0
0
0
0
0
0
0
0
0
0
0
0
0
0
0
0
0
0
0
1
1
0
0
0
0
0
1
0
0
0
0
0
0
0
0
0
0
0
0
1
0
0
0
0
0
0
0
0
0
0
0
0
0
0
0
0
0
0
0
0
0
0
0
0
0
0
0
0
0
0
0
0
0
0
0
0
0
0
0
0
0
0
0
0
0
0
0
0
0
0
0
0
0
1
0
1
0
0
0
0
0
0
0
0
0
0
0
0
0
0
0
0
0
0
1
0
0
0
0
0
0
0
0
0
0
0
0
0
0
0
0
0
0
0
0
0
0
0
0
0
0
0
0
0
0
0
0
0
0
0
0
0
0
0
0
0
0
0
0
0
0
0
0
0
0
0
0
0
0
0
0
0
0
0
0
0
0
0
0
0
0
0
0
0
0
1
0
0
0
0
0
0
0
0
0
0
1
0
0
0
0
0
0
0
0
0
0
0
0
0
0
0
0
0
0
0
0
0
0
0
0
0
0
0
0
0
0
0
0
0
0
0
0
0
1
0
0
0
0
0
0
0
0
0
0
0
0
0
0
0
0
0
0
0
0
0
0
0
0
0
0
0
0
0
0
0
0
0
0
0
0
0
0
0
0
0
0
0
0
0
0
0
0
0
0
0
0
0
0
0
0
0
0
0
0
0
0
0
0
0
0
0
0
0
0
0
0
0
0
0
0
0
0
0
0
0
1
0
0
0
0
0
0
0
0
0
0
0
0
0
0
0
0
0
0
0
0
0
0
0
0
0
0
0
0
0
0
0
0
0
0
0
0
0
0
0
0
0
0
0
0
0
0
0
0
0
0
0
0
0
0
0
0
0
0
0
0
0
0
0
0
0
0
0
0
0
0
0
0
0
0
0
0
0
0
0
0
0
0
0
0
0
0
0
0
0
0
0
0
0
0
0
0
0
0
0
0
0
0
0
0
0
0
0
0
0
0
0
0
0
0
0
0
0
0
0
0
0
0
0
1
0
0
0
0
0
0
0
0
0
0
0
0
0
0
0
0
0
0
0
0
0
0
0
0
0
0
0
0
0
0
0
0
0
0
0
0
0
0
0
0
0
0
0
0
0
0
0
0
0
0
0
0
0
0
0
0
0
0
0
0
0
0
0
0
0
0
0
0
0
0
0
0
0
0
0
0
0
0
0
0
0
1
0
0
0
0
0
0
0
1
0
0
0
0
0
0
0
0
0
0
0
0
0
0
0
0
0
0
0
0
0
0
0
0
0
0
0
0
0
0
0
0
0
0
0
0
0
1
0
0
0
0
0
0
0
0
0
0
0
0
0
0
0
0
0
0
0
0
0
1
0
0
0
0
0
0
0
0
0
0
0
0
1
1
0
0
0
0
0
0
0
0
0
0
0
0
0
0
0
1
1
0
1
0
0
0
0
0
0
0
0
0
1
0
0
0
0
0
0
1
0
0
0
0
0
0
0
0
0
0
1
0
0
0
0
1
0
1
0
0
0
0
0
0
0
1
0
0
0
1
0
0
0
1
0
1
1
0
0
1
1
0
0
0
1
0
0
0
1
0
0
0
0
0
0
0
0
0
1
0
0
0
0
0
0
1
0
0
0
0
0
0
0
0
0
0
0
0
0
0
0
0
0
0
0
0
0
0
0
0
0
0
0
1
0
0
1
0
0
0
0
0
0
0
0
0
0
0
0
0
0
0
0
0
0
1
0
0
1
0
0
0
0
0
0
0
0
0
0
0
1
0
0
1
0
0
0
0
0
0
0
0
0
0
0
1
1
0
0
0
0
0
0
0
0
0
0
0
0
1
0
0
0
0
0
0
0
0
0
0
0
0
0
0
0
0
0
1
0
0
0
0
0
0
0
0
0
0
0
0
0
0
0
0
0
1
0
0
0
0
0
0
0
0
0
0
0
0
0
0
0
0
0
0
0
0
0
0
0
0
0
0
0
0
0
0
0
0
0
0
0
0
0
0
0
0
1
0
0
0
0
0
0
0
0
0
0
0
0
0
0
0
0
0
0
0
0
0
0
0
0
0
0
0
0
0
0
0
0
0
0
0
0
0
0
0
0
0
0
0
0
0
1
0
0
0
0
0
0
0
0
0
0
0
0
0
0
0
0
0
0
0
0
0
0
0
0
0
0
0
0
0
0
0
0
0
0
0
0
0
0
0
0
0
0
0
0
0
0
0
1
0
0
0
0
0
0
0
0
0
0
1
0
0
0
0
0
0
0
0
0
0
0
0
0
0
0
1
0
0
1
0
0
0
0
0
0
0
0
0
0
0
0
0
0
0
0
0
0
0
0
0
0
0
1
0
0
0
0
0
0
0
0
0
0
0
0
0
0
0
0
0
0
0
0
0
0
0
0
0
0
0
0
0
0
0
0
0
0
0
1
0
0
0
0
0
0
0
0
0
0
0
0
0
0
0
0
0
0
0
0
0
0
0
0
0
0
0
0
0
0
0
0
0
0
0
0
0
0
0
0
0
0
0
0
0
0
0
0
0
0
0
0
0
0
0
0
0
0
0
0
0
0
0
0
0
0
0
0
0
0
0
0
0
0
0
0
1
0
0
0
0
0
0
0
0
0
0
0
0
0
0
0
0
0
0
0
0
0
0
0
0
0
0
0
0
0
0
0
0
0
0
0
0
0
0
0
1
0
0
0
0
0
0
0
0
0
0
0
0
1
1
0
0
0
0
0
0
0
0
0
0
0
0
0
0
0
0
0
0
0
0
0
0
0
0
0
0
0
0
0
0
0
0
0
0
0
0
0
0
0
0
0
0
0
0
0
0
0
0
0
0
0
0
0
0
0
0
0
0
0
0
0
0
0
0
0
0
0
0
0
0
0
0
0
0
0
0
0
0
0
0
0
0
0
0
0
0
0
0
0
0
0
0
0
0
0
0
0
0
0
0
0
1
0
1
0
0
0
0
0
0
0
1
1
1
1
0
0
0
0
0
0
0
0
0
0
0
0
0
0
0
0
0
0
0
0
0
0
0
0
0
0
0
0
1
1
0
0
0
0
0
0
0
0
0
0
0
0
0
0
0
0
0
0
1
0
0
0
0
0
0
0
1
1
0
1
1
0
0
1
0
0
0
0
0
0
0
1
0
1
0
0
0
0
0
0
0
0
0
0
0
0
0
0
0
0
0
0
0
0
0
0
0
0
0
0
0
1
1
0
0
0
1
1
0
0
0
0
1
0
0
1
0
1
0
0
0
0
0
1
0
0
0
1
0
0
0
0
0
0
0
0
0
0
0
0
0
0
0
0
0
0
0
0
0
0
0
0
0
0
0
1
0
0
0
0
0
0
1
0
0
0
0
0
0
0
0
0
0
0
0
0
0
0
0
0
0
0
0
0
0
0
0
0
0
0
0
0
1
0
1
0
0
0
0
0
0
0
1
0
0
0
0
0
0
0
0
0
0
0
1
0
0
0
0
0
0
0
0
0
1
0
0
0
0
0
0
0
1
0
0
0
0
0
0
0
1
0
0
0
0
0
0
0
0
0
0
0
0
0
0
0
0
0
0
0
1
0
1
0
0
0
0
0
1
0
0
0
0
0
0
0
0
0
0
0
0
0
0
0
0
0
0
0
0
0
0
0
0
0
1
0
1
0
0
0
0
0
0
0
0
0
1
0
0
0
0
0
1
0
0
0
0
0
0
0
0
0
0
0
0
0
0
0
1
0
0
0
0
0
0
0
0
1
0
0
0
0
0
0
0
0
0
0
0
0
0
0
0
0
0
0
0
0
0
0
0
0
0
0
0
0
0
0
1
0
0
0
0
0
0
0
0
0
0
0
0
0
0
0
0
1
0
0
0
0
0
0
0
0
1
0
0
0
0
0
0
0
0
0
1
0
0
0
0
0
1
0
0
0
0
0
0
0
0
0
0
0
0
0
0
0
0
0
0
0
1
0
0
0
0
0
0
1
0
0
0
0
0
0
0
0
1
0
0
0
0
0
0
0
0
0
0
0
0
0
0
1
0
0
1
0
0
0
1
0
0
0
0
0
0
0
0
0
0
0
0
0
0
0
0
1
0
0
0
0
0
0
0
0
0
0
1
0
1
0
0
0
0
0
0
1
0
0
0
0
0
0
0
0
0
0
0
0
0
0
0
0
0
0
0
0
0
0
0
0
0
0
0
1
1
0
0
0
0
0
0
1
0
0
0
0
0
0
0
0
0
0
0
0
0
1
0
0
0
0
0
0
0
1
0
0
0
0
0
0
0
0
0
0
0
0
0
0
0
0
0
0
0
0
0
0
0
0
0
0
0
1
0
0
0
0
0
0
0
0
0
0
1
0
0
1
0
0
0
0
0
0
0
0
0
0
0
0
0
0
0
0
0
0
0
0
0
0
0
0
0
0
0
0
0
1
0
0
0
0
0
0
0
1
0
0
0
0
0
0
0
1
0
0
0
0
1
0
0
0
0
0
0
0
0
0
0
0
1
0
1
0
0
0
1
0
				</DataArray>
				<DataArray type="Float64" Name="h" NumberOfComponents="1" Format="ascii">
0.5001497366
0.5001505719
0.5000005351
0.5000018892
0.5000029209
0.5000016199
0.5000034957
0.5000468299
0.5000094919
0.5001570256
0.5000055702
0.5000004779
0.5007652667
0.5000065291
0.5001256511
0.5068355960
0.5000002428
0.5004365148
0.5004305703
0.5000008799
0.5000000528
0.5033530680
0.5003601805
0.5000010205
0.5000006756
0.5107018331
0.5081913822
0.5001985679
0.5000528013
0.5000188135
0.5000022254
0.5001262567
0.5078466758
0.5000000564
0.5000000292
0.5000061010
0.5000000203
0.5017371666
0.5005668080
0.5000002853
0.5000169831
0.5000186292
0.5033965213
0.5002820509
0.5000017397
0.5001762250
0.5006470627
0.5000000191
0.5000000005
0.5000000098
0.5000000165
0.5000352180
0.5000944498
0.5000006620
0.5000034827
0.5139009544
0.5000553528
0.5000000020
0.5000000132
0.5000001770
0.5000000001
0.5000000000
0.5000000007
0.5000105044
0.5004900285
0.5000687284
0.5000001401
0.5000000132
0.5000000002
0.5000000001
0.5000000040
0.5000008436
0.5078263163
0.5000001873
0.5000000480
0.5042026861
0.5000000069
0.5000000007
0.5000000042
0.5012520276
0.5000000000
0.5000234366
0.5000000000
0.5000002005
0.5060257744
0.5006660326
0.5000000000
0.5000025802
0.5000000027
0.5000000000
0.5000000000
0.5016546763
0.5000000001
0.5000000004
0.5000827682
0.5002373146
0.5000293955
0.5026847955
0.5005113904
0.5000000000
0.5000000000
0.5000000000
0.5000083567
0.5000000011
0.5007289160
0.5000015233
0.5003023850
0.5000000001
0.5000000028
0.5000268115
0.5000000019
0.5000000001
0.5000000002
0.5000000002
0.5000007330
0.5000000000
0.5000025117
0.5001242583
0.5000000000
0.5000000537
0.5002912424
0.5000088448
0.5023348901
0.5000080767
0.5000000007
0.5000000000
0.5000002036
0.5000473286
0.5000000000
0.5000000000
0.5000000000
0.5000984932
0.5000000134
0.5000000000
0.5000412967
0.5000000000
0.5167223632
0.5000000000
0.5000000000
0.5256759766
0.5002686878
0.5000100294
0.5000000000
0.5288822748
0.5008391605
0.5000000000
0.5230651186
0.5000000000
0.5000694392
0.5000000000
0.5177173107
0.5000000000
0.5000000000
0.5000000000
0.5000000000
0.5000000000
0.5000000000
0.5009178119
0.5000000000
0.5002223542
0.5405802037
0.5000000000
0.5287646001
0.5004714136
0.5003835350
0.5000000000
0.5305361136
0.5344133614
0.5000141816
0.5000000000
0.5000000000
0.5000296530
0.5000000000
0.5019484976
0.5473407570
0.5000000000
0.5453940180
0.5000000000
0.5000000000
0.5010266889
0.5000000000
0.5458752742
0.5005414320
0.5029386989
0.5000186673
0.5000192247
0.5300425134
0.5000000000
0.5000293233
0.5000309735
0.5401742103
0.5000000000
0.5002374083
0.5270613852
0.5000000000
0.5000000000
0.5051054039
0.5302346512
0.5214773022
0.5000000000
0.5000173731
0.5010932980
0.5000322760
0.5000000000
0.5189041301
0.5054629356
0.5591216944
0.5314026040
0.5143620732
0.5801251184
0.5796544115
0.5000918790
0.5053781347
0.5048550394
0.5458179038
0.5647247864
0.5705121131
0.5106896568
0.5865647589
0.5012787964
0.5079871849
0.5000000004
0.5860809551
0.5000001066
0.5012851211
0.5000000000
0.5000000000
0.5000141430
0.5097749316
0.5000000000
0.5000000000
0.5000000069
0.5001416253
0.5000000000
0.5000000000
0.5000013393
0.6036561748
0.6136127986
0.5011583105
0.6436475826
0.6570183254
0.5725615162
0.5184310671
0.6072243919
0.5495286136
0.5822872090
0.5103553927
0.6162244331
0.5937982610
0.5324616924
0.6305691254
0.6555245875
0.5192511503
0.5833022251
0.6430116635
0.5162011444
0.5963604083
0.5668614879
0.5048542861
0.5000000270
0.6506165473
0.5041684982
0.5000483446
0.5000003509
0.5004431352
0.5000000000
0.5000000000
0.5253386436
0.5000000000
0.5000000013
0.5000000000
0.6161260732
0.5000000001
0.5000042686
0.5000003747
0.5294753772
0.5004789847
0.5000043821
0.5000000237
0.5037185741
0.5000000000
0.5000000000
0.5000000000
0.5000000000
0.5000000001
0.5000000016
0.5000453680
0.6457613128
0.5307418704
0.5464488167
0.6342626389
0.6750606068
0.6151740684
0.5952768382
0.6725782649
0.6972233638
0.6604133038
0.6332533081
0.5696807732
0.5161990642
0.5411587899
0.6157697310
0.6757765489
0.6951494166
0.6619055998
0.6601832805
0.6924713523
0.6479732698
0.5501163428
0.5123501936
0.5000144248
0.5001487513
0.5000000000
0.5683625654
0.5000000000
0.5000000892
0.6838788243
0.5000000003
0.5000000000
0.6702001738
0.5000010666
0.5014489559
0.5000000043
0.5000000000
0.5014620354
0.5001536267
0.5000134082
0.5000000000
0.5000012129
0.5000000055
0.5000000000
0.5000000000
0.5000000000
0.5745426787
0.5000000734
0.5116839667
0.5000000002
0.6588601358
0.5000000000
0.6913508297
0.7209576784
0.6863465654
0.5656846582
0.7098822478
0.6362753459
0.6639132795
0.6302210538
0.5832634418
0.5000000000
0.5593420148
0.7249951646
0.5000045030
0.6443737711
0.5899478848
0.5000000000
0.6778994895
0.5155455870
0.7131105565
0.6722707429
0.5000001646
0.5000000167
0.5000000000
0.5411562712
0.7055402194
0.7072672356
0.6496831838
0.7519808983
0.6886440739
0.5007286814
0.5762012307
0.5001280829
0.5000000018
0.6047411222
0.5000000000
0.5000002714
0.5000029849
0.5000000000
0.6251649857
0.5000000000
0.5324290268
0.6435105478
0.5000000009
0.5000000000
0.7031251918
0.5000000123
0.6970492994
0.5043400532
0.5000441692
0.5004177741
0.7285103331
0.5000000000
0.6481289649
0.5000036949
0.7624547376
0.5000000000
0.5000002072
0.6075988087
0.6369695314
0.6708122613
0.7602523047
0.5040861954
0.5000000000
0.7552044965
0.5000000171
0.7619301593
0.5000000000
0.5000000006
0.5326588460
0.5004675046
0.7449001923
0.5000375622
0.6972218503
0.5000001263
0.6018503168
0.6733150977
0.5000000000
0.5000000003
0.7022387720
0.5000002935
0.5284979221
0.7611801895
0.7584320485
0.6439598829
0.5000000008
0.5000000000
0.5000262857
0.5000000000
0.5997842978
0.5000000357
0.7297177602
0.5075821498
0.5000000000
0.5000094633
0.5000000001
0.5015327841
0.5000607584
0.5000000062
0.5000000071
0.5000000000
0.7652934798
0.6503981656
0.5004197376
0.6583514548
0.5000005688
0.7375347739
0.6882857993
0.5033042627
0.5436838013
0.5000019472
0.5000000691
0.5000180902
0.5000000000
0.5762009208
0.6439942897
0.7231629988
0.7584310884
0.5000000000
0.5000000002
0.5028975972
0.5000000000
0.6177236595
0.7326599571
0.6830730277
0.5000000000
0.7137223576
0.5000007599
0.5003140555
0.5118088634
0.7680576924
0.6525060317
0.5000000000
0.7145353226
0.5000000027
0.7349775387
0.7010161121
0.5001231333
0.5000000000
0.7460431557
0.6200229597
0.6156754285
0.6103798700
0.7450757158
0.6670346621
0.5000000000
0.5000000149
0.5000000005
0.5000000001
0.6157171201
0.5000103061
0.6340196797
0.7020496399
0.5761516824
0.5000000000
0.6293037897
0.6075992356
0.7027678958
0.7000550450
0.5000000000
0.5000000487
0.5810573621
0.5000685495
0.5000001933
0.7244030665
0.6708124201
0.7602518224
0.7263530415
0.5013006194
0.6062118371
0.7463369514
0.5710625589
0.6157168179
0.7408670641
0.5006444119
0.7145270639
0.7676806403
0.6200272872
0.5000313078
0.7478234058
0.6262456200
0.7129506273
0.7408701120
0.5278411392
0.6816532743
0.5000000000
0.6796754431
0.5000001212
0.5240477991
0.5048811044
0.7669606208
0.7441064796
0.5000011893
0.6830720907
0.5002443902
0.6511183232
0.6525099149
0.7696790238
0.6293097788
0.7000683884
0.6062133316
0.7669605301
0.7450774957
0.7681292877
0.6849309541
0.6173629504
0.7469178222
0.6967303248
0.5713224410
0.7349790057
0.7618543006
0.6392816239
0.5000000000
0.7215920641
0.6639794496
0.7672111733
0.6329559636
0.7665521072
0.7487511705
0.5890563503
0.5000000035
0.5000000000
0.7372935436
0.5489271636
0.5000000002
0.6670300820
0.7687311760
0.5000000070
0.7263439721
0.5003136828
0.5094491368
0.5000000000
0.7268123551
0.5596491599
0.5000032655
0.5072472129
0.5285021914
0.6313739840
0.7333367729
0.7619787146
0.5006444260
0.7475203459
0.7033748124
0.5000019382
0.5000685508
0.4729779720
0.7121684231
0.6457193697
0.5000000000
0.5000001256
0.5033037007
0.6308627018
0.5000000000
0.7797876670
0.6928266481
0.7702009280
0.6810118954
0.6440027866
0.7529428923
0.6293321860
0.5000000000
0.7585089490
0.7675720513
0.7378670147
0.5000000000
0.6816422278
0.5000262108
0.7131776623
0.7720902948
0.5000000038
0.5000000003
0.4852101117
0.7628990890
0.6369533633
0.5000000761
0.5696709932
0.7619788164
0.6604263919
0.5107913345
0.6511207250
0.7268100155
0.7441071447
0.6796701216
0.5000000000
0.7671975223
0.6329651350
0.6262480306
0.7229472916
0.6732711882
0.5000000067
0.6329590941
0.7076796512
0.7720902478
0.6764101817
0.7322630231
0.7487503642
0.7129501748
0.7372959416
0.6639765656
0.5000021801
0.5000000003
0.5000860649
0.5750243761
0.6173635749
0.7665934509
0.7745399486
0.7531058292
0.5000000000
0.5000013464
0.7672111225
0.7440872586
0.5000000002
0.8149807927
0.7183966278
0.6286960063
0.6469012046
0.8961567621
0.7469514722
0.7562001902
0.6967387013
0.5000321806
0.6958451035
0.6311978707
0.6331457638
0.5010607201
0.5000001291
0.5000000000
0.5004112219
0.6805981311
0.7359306624
0.6282573906
0.6688757566
0.5000000000
0.5000000000
0.7696788802
0.7531860820
0.7723024019
0.6876848846
0.5000024017
0.7239665580
0.7272112476
0.5000000000
0.5000000001
0.7582403176
0.7552941420
0.5000004920
0.7427663213
0.7243134797
0.7701119141
0.5000000085
0.5000000000
0.5000000004
0.7064086973
0.6514505174
0.7636587625
0.6627019890
0.6828049020
0.5000000282
0.5000000015
0.5000060391
0.5000004480
0.8692383143
0.5000000001
0.5000000000
0.6456269533
0.5000000003
0.5000000201
0.4852103218
0.5000000000
0.7215919805
0.5000000000
0.5669221313
0.6282799884
0.5000000000
0.5696718502
0.5000000000
0.5000000000
0.5489274490
0.5000000000
0.5077077391
0.4564345284
0.5000000000
0.5000000000
0.5906441630
0.5000668212
0.5000223176
0.5000224481
0.5000672949
0.5000014005
0.5000004766
0.5000055554
0.5000159444
0.5000091441
0.5000016132
0.5000029340
0.5000091944
0.5000095367
0.5001251900
0.5000034816
0.5000547935
0.5000159935
0.5000014052
0.5003382958
0.5004357812
0.5000018930
0.5000005370
0.5004278066
0.5000187884
0.5028330530
0.5000001712
0.5000469829
0.5106946848
0.5000006745
0.5001572343
0.5017347165
0.5007682491
0.5000001802
0.5122585131
0.5007386189
0.5000548802
0.5000022227
0.5003393717
0.5000000563
0.5078206522
0.5001251940
0.5136243646
0.5000002844
0.5014182104
0.5000002431
0.5068480281
0.5033750352
0.5005632033
0.5000001716
0.5028377281
0.5000168769
0.5000065383
0.5000008804
0.5000001807
0.5003634103
0.5000000696
0.5033675761
0.5000000816
0.5017416147
0.5000000529
0.5007437864
0.5018926929
0.5000665117
0.5000000190
0.5122824346
0.5000017327
0.5000000165
0.5006410657
0.5002003037
0.5000010244
0.5000532147
0.5000549551
0.5025229339
0.5082273698
0.5000001217
0.5011671414
0.5014261837
0.5000054121
0.5000000066
0.5136655409
0.5000936405
0.5000000697
0.5000000023
0.5000000032
0.5019055076
0.5000000818
0.5000004910
0.5000669151
0.5000061315
0.5004855508
0.5017514519
0.5000002648
0.5000000292
0.5000000007
0.5000000132
0.5000216573
0.5000000203
0.5000104499
0.5000054292
0.5000000256
0.5000000462
0.5002847811
0.5000001870
0.5000006167
0.5000008412
0.5077922530
0.5000000005
0.5070954992
0.5014056381
0.5000001219
0.5000000000
0.5000000066
0.5000187022
0.5000000068
0.5000000040
0.5000000495
0.5000000479
0.5025375733
0.5030404094
0.5000000002
0.5000000058
0.5011686773
0.5000000001
0.5000004925
0.5000002653
0.5001997274
0.5000217796
0.5000000542
0.5000004815
0.5000000365
0.5000000005
0.5000354391
0.5000000032
0.5001776105
0.5000233146
0.5000002004
0.5000069205
0.5000000023
0.5000000098
0.5000000001
0.5000000000
0.5030620274
0.5000000000
0.5000000495
0.5000000132
0.5000001455
0.5000006185
0.5091526439
0.5130622228
0.5000000256
0.5000000058
0.5000017086
0.5000034951
0.5000000010
0.5000000005
0.5000000000
0.5139518922
0.5000073722
0.5000000129
0.5071155686
0.5000006644
0.5000000463
0.5000001774
0.5016520947
0.5000000020
0.5014164540
0.5000000001
0.5000000543
0.5000000011
0.5005086692
0.5000069496
0.5116890781
0.5000004825
0.5000000000
0.5000004433
0.5000000001
0.5000007417
0.5000691547
0.5000000000
0.5000001399
0.5000000017
0.5026754128
0.5000000000
0.5002364088
0.5000020782
0.5000000364
0.5000000000
0.5000015271
0.5002006525
0.5000000000
0.5000074106
0.5000000028
0.5000000001
0.5000000000
0.5000000129
0.5000000002
0.5000017129
0.5041983038
0.5000000077
0.5000001457
0.5000000007
0.5131025893
0.5000000000
0.5091479135
0.5000000019
0.5000266751
0.5000000010
0.5000000001
0.5000000000
0.5000022727
0.5000000000
0.5006667224
0.5000088298
0.5000000124
0.5000000017
0.5015587807
0.5000020858
0.5000007432
0.5060296326
0.5012554964
0.5000000000
0.5000000000
0.5000000000
0.5000024996
0.5000000042
0.5000004416
0.5002912764
0.5000025793
0.5117038601
0.5000000000
0.5000983501
0.5000000310
0.5041184550
0.5000000000
0.5000000006
0.5000000000
0.5000000027
0.5000830035
0.5000000004
0.5000000000
0.5000000000
0.5000000000
0.5000000000
0.5000000003
0.5000000007
0.5000002031
0.5000000076
0.5000000000
0.5000083872
0.5000000000
0.5000001120
0.5000022828
0.5015592680
0.5000000124
0.5000000002
0.5000412752
0.5000000000
0.5000000134
0.5007289401
0.5000293746
0.5008392591
0.5000003877
0.5000100263
0.5000000032
0.5041180543
0.5000000000
0.5000000002
0.5000000001
0.5086276685
0.5000000003
0.5000000000
0.5000007354
0.5000694484
0.5000000308
0.5000000000
0.5000166006
0.5000000000
0.5000000006
0.5000000000
0.5000000000
0.5003021020
0.5000290256
0.5056968739
0.5000012359
0.5000000000
0.5000000000
0.5000000002
0.5094131835
0.5000000000
0.5000000000
0.5000000000
0.5000000538
0.5000001110
0.5000000000
0.5001243476
0.5000000000
0.5000000000
0.5000158437
0.5177225058
0.5000000000
0.5000000000
0.5086291444
0.5000166014
0.5343785673
0.5003836562
0.5000000032
0.5000000000
0.5000290315
0.5001013698
0.5000000000
0.5000038420
0.5000003848
0.5000080786
0.5000000000
0.5405168455
0.5001848875
0.5023303174
0.5000000000
0.5000053183
0.5287550822
0.5000000000
0.5000000000
0.5000473274
0.5000000000
0.5000000000
0.5167193532
0.5000000000
0.5000000000
0.5000111785
0.5000000000
0.5000000000
0.5000000000
0.5000000000
0.5000022721
0.5044288815
0.5000000000
0.5000158554
0.5000012242
0.5094085872
0.5000000000
0.5056883381
0.5000000000
0.5000000000
0.5000000000
0.5000000000
0.5000000000
0.5019489880
0.5000000000
0.5005415488
0.5000347859
0.5001848504
0.5001013507
0.5000000000
0.5000000000
0.5000000000
0.5289522082
0.5000000000
0.5230868133
0.5010270095
0.5000000000
0.5000053222
0.5000038194
0.5012011139
0.5002686375
0.5000000000
0.5000000000
0.5453161062
0.5000000000
0.5257236007
0.5000000000
0.5002055887
0.5000293268
0.5000000000
0.5000000000
0.5044282369
0.5001227409
0.5000000000
0.5000046029
0.5000022733
0.5000111137
0.5000186680
0.5000000000
0.5000000000
0.5009176681
0.5000000000
0.5300067030
0.5003640444
0.5000000000
0.5306048234
0.5002055282
0.5000000000
0.5000000000
0.5012009535
0.5000000000
0.5000000000
0.5000000000
0.5000904268
0.5000000000
0.5000346893
0.5000868204
0.5000000000
0.5000000000
0.5004712925
0.5000000000
0.5270696871
0.5000000000
0.5002223234
0.5010963375
0.5000000000
0.5000296523
0.5000322774
0.5474005935
0.5000000000
0.5001223020
0.5000141827
0.5000173731
0.5000046048
0.5215069517
0.5000000000
0.5000000000
0.5021900639
0.5000904107
0.5000868055
0.5000918833
0.5000000000
0.5000000000
0.5026667377
0.5000000000
0.5458837180
0.5000000000
0.5000000000
0.5003633406
0.5002198268
0.5001000850
0.5000000000
0.5053786081
0.5143839530
0.5401357434
0.5000000000
0.5000000000
0.5000309730
0.5000000000
0.5000000000
0.5000000000
0.5029322552
0.5000192262
0.5000000000
0.5079998847
0.5103559980
0.5822240069
0.5100087293
0.5495075868
0.5301889320
0.5001000780
0.5445937643
0.5005584591
0.6071989766
0.5191220250
0.5021895922
0.6037565497
0.5002373793
0.5005600668
0.5000000000
0.5051037688
0.5025489605
0.5668155432
0.5324562912
0.5833825520
0.5963012461
0.5192503572
0.6163100377
0.5002198103
0.5011584561
0.5026661809
0.5000000000
0.5555410495
0.5188750367
0.5000000000
0.5000000016
0.6161582954
0.5000000000
0.5000003798
0.5037247372
0.5000000000
0.5000000000
0.5000000000
0.5000456817
0.5253589152
0.5000000001
0.5000000000
0.5000000274
0.5004447715
0.5000000000
0.5000000000
0.5000000000
0.5000043156
0.5795638940
0.6342302936
0.5511698664
0.5012786034
0.6604524308
0.6750974167
0.5191216921
0.5445349843
0.5100073436
0.5026870252
0.6108512352
0.5952293719
0.5307408988
0.5005584059
0.5801891329
0.5314094105
0.5591809276
0.5054622110
0.5865138403
0.6157187251
0.5501059600
0.5005599996
0.6479732657
0.6758333220
0.5106885815
0.5646438736
0.6619240787
0.5726118869
0.5094253238
0.5705887305
0.5324619047
0.5458466311
0.5025485555
0.5000000069
0.6702586023
0.6291210245
0.5116870331
0.5001544479
0.5000012298
0.5001409946
0.5000000000
0.5000000000
0.5000000000
0.5097579731
0.5000000000
0.5000000000
0.5000000055
0.5000000000
0.5860960952
0.5000000000
0.5000000000
0.5000013252
0.5000001055
0.5683449862
0.5014518243
0.5000145676
0.5000000905
0.5012816873
0.5000000000
0.5000000000
0.5000000000
0.5554778290
0.5000000000
0.5000000000
0.5000000003
0.5000000000
0.5000000004
0.5000140362
0.6588588647
0.5934006075
0.5184303224
0.5026867646
0.5656783238
0.6136714061
0.6569379371
0.6825664912
0.6301911539
0.6108200358
0.5726001502
0.6863522082
0.7098733304
0.6436338812
0.5511863226
0.6443534248
0.5899280606
0.5094239121
0.5273724722
0.5938565408
0.6554428592
0.7072403098
0.6115124784
0.6429555290
0.5726404654
0.6722930113
0.7055485006
0.6306026805
0.5324652959
0.5326426862
0.5000043329
0.5004688157
0.5000000000
0.5294571556
0.5000000000
0.5000000234
0.6970512625
0.5000000001
0.5000000000
0.5000000000
0.5000000000
0.6914560797
0.6505606265
0.5000037350
0.5004771383
0.5000000174
0.5000000000
0.5043418120
0.5000479897
0.5000444636
0.5000000000
0.6291129337
0.5000000000
0.5000003462
0.5000000013
0.5000000000
0.5000000000
0.5000000000
0.6434553439
0.5000002750
0.5041615479
0.5000000009
0.5000000000
0.5000000000
0.5075814848
0.7205990999
0.5000002942
0.6457794104
0.5934316364
0.5000000000
0.5000000000
0.7022326763
0.5459867673
0.7297067749
0.6725509973
0.5000026647
0.5000000008
0.5000000000
0.5464515382
0.6972165911
0.6826003581
0.6439465700
0.6733261207
0.6152139948
0.6972236236
0.7529640895
0.5000608130
0.5997763417
0.5004827112
0.5000000089
0.6224747414
0.5000000000
0.5234575672
0.7326450885
0.5000012494
0.6332867251
0.5696956056
0.5000000000
0.5000000000
0.6882750353
0.5053467986
0.7231619567
0.6601712213
0.5000006210
0.5000000040
0.5000000000
0.5273698345
0.6924549099
0.6951634929
0.6318470463
0.6583461159
0.6115433850
0.7338499328
0.7275450865
0.5002259571
0.5591460234
0.5000380696
0.5000000004
0.6177101820
0.7337486867
0.5000000000
0.7271961078
0.5000000724
0.7658509835
0.5000000000
0.5000103726
0.5000000000
0.6156748249
0.6047418952
0.6540282459
0.5000000001
0.6340193859
0.7621275283
0.5761228726
0.5000000000
0.5745602386
0.7569341113
0.5000000002
0.7630396168
0.5000000000
0.7137268061
0.5000000492
0.6838600607
0.5014588585
0.5000132846
0.7369917146
0.5013018563
0.7244030581
0.5000000000
0.7009996479
0.5000010534
0.7675723527
0.5000000000
0.5000007668
0.5000000000
0.6268660054
0.6186149396
0.6146596691
0.5000000000
0.6531289574
0.7654543470
0.5118063173
0.5000000000
0.6914987045
0.7585091589
0.5000000042
0.7680580695
0.5000000000
0.5000000027
0.5123450399
0.5001479655
0.7460432264
0.5001235428
0.6291556033
0.5000000313
0.5000000323
0.5000000000
0.7478233002
0.5459894573
0.5278406104
0.5016192465
0.6639095464
0.5000000000
0.5000091084
0.5000000001
0.5000000000
0.7646912850
0.6913673271
0.5000000763
0.5103628914
0.7529631769
0.5025223692
0.7553094603
0.6133916883
0.6362945581
0.5000000002
0.5000000000
0.5000076381
0.5000000035
0.5000000766
0.5000011895
0.5000000000
0.5832701386
0.7027803925
0.5000000088
0.7209666268
0.7519793809
0.7611806764
0.5000000000
0.5000000000
0.5025219189
0.5002443823
0.5000000000
0.5000026614
0.5000000000
0.5000000001
0.6224938828
0.7206185377
0.5004826085
0.5000178198
0.5000000000
0.5593443443
0.5000000015
0.5000000017
0.5000000358
0.5000000000
0.7612654935
0.6886451031
0.5781620814
0.5001294456
0.6496965828
0.5000000000
0.5000020689
0.5000000000
0.7566165008
0.6778898315
0.5000000167
0.5010753057
0.7603176033
0.7603181697
0.5169139992
0.6318617779
0.5000000000
0.5000000000
0.5000005332
0.5000000175
0.5000051676
0.5000000000
0.5591439882
0.5720358870
0.5015327952
0.5000001644
0.7131062502
0.7553085382
0.5000000000
0.5000000000
0.5007284539
0.5009328088
0.5000000000
0.5000380456
0.5000000004
0.5000000000
0.6047561790
0.7250121009
0.5053467155
0.5000044937
0.6745912440
0.5000000000
0.5000000761
0.5000000000
0.5000000000
0.7031298892
0.6103802027
0.5000002050
0.6531292964
0.5596490308
0.5000963293
0.5040831512
0.7619296271
0.5000000000
0.6349525621
0.6047423242
0.6472613398
0.5000000000
0.7123901992
0.7030945035
0.5000000002
0.5000000006
0.5954288168
0.5002894333
0.5000000101
0.7337494664
0.6369695476
0.7605605343
0.7605598492
0.7261979632
0.6481717676
0.5000373427
0.5000000000
0.7449002843
0.7656016047
0.6113288605
0.6251656938
0.7333395505
0.6596599427
0.5942330455
0.5949277732
0.7397718056
0.5878557605
0.5000488760
0.6605126842
0.5000000000
0.5000000038
0.5000000001
0.5000000000
0.6216629878
0.5000029585
0.6146598724
0.6418369131
0.5324360336
0.7656013095
0.5000000000
0.6247849595
0.6186155024
0.6398901958
0.5000000000
0.6928267358
0.6892414394
0.5000000000
0.5000000122
0.5942335856
0.5000210381
0.5000000511
0.7285106278
0.6540278895
0.7654540459
0.7119653368
0.7157359342
0.7272133719
0.5004165945
0.5000000000
0.7369916450
0.5936479099
0.6268667485
0.6317237576
0.7420369691
0.5320977658
0.6208446753
0.5954286506
0.7341833424
0.5002044838
0.7725033660
0.6349618500
0.7030952879
0.7646913591
0.6113337878
0.5000091084
0.7652935798
0.7420376902
0.7680063378
0.7171239834
0.6511826387
0.6290343157
0.7343677471
0.5000000000
0.7253992427
0.5101178545
0.5696132489
0.7341881577
0.7696041606
0.5101183089
0.5002257363
0.6133921808
0.6644048641
0.5000000002
0.5000000000
0.7676805684
0.7338492741
0.5000000000
0.7384267704
0.6908638682
0.5000000313
0.5000000040
0.7689065430
0.5477705801
0.6291463994
0.6409017247
0.5016192993
0.5001280621
0.7633062896
0.7678072963
0.5000000001
0.7521184069
0.5462014678
0.5000000000
0.5000000003
0.7275437374
0.5000003209
0.5000000000
0.7492078084
0.5673883259
0.5000003208
0.5000000008
0.6745838187
0.7722519678
0.5000737783
0.6533517325
0.6472695238
0.5000000018
0.7775806971
0.6247921118
0.6892530560
0.7654990308
0.5936476843
0.5001294497
0.7633061670
0.5048809862
0.7397755757
0.7769884071
0.6503974540
0.6823568918
0.6239938758
0.7552942603
0.7092175150
0.5467465355
0.7261963461
0.7703792473
0.6018503254
0.5028977049
0.7375349141
0.6282797763
0.5000000000
0.5000001212
0.5000000000
0.7247384197
0.6696789025
0.5000005688
0.7721145861
0.5192939001
0.6335769985
0.5169143038
0.5000000000
0.7654990634
0.7695518518
0.7522705845
0.5669212709
0.5000000015
0.5000000000
0.7445269718
0.5192209584
0.5000000691
0.5000000001
0.6605140858
0.7752313761
0.5000180891
0.6414060250
0.6398966700
0.5000000017
0.7157238603