<VTKFile type="UnstructuredGrid" version="0.1">
	<UnstructuredGrid>
		<Piece NumberOfPoints="1862" NumberOfCells="3498">
			<CellData>
				<DataArray type="Int32" Name="type" NumberOfComponents="1" Format="ascii">
0
0
0
0
0
0
0
0
0
0
0
0
0
0
0
0
1
0
0
1
0
0
0
0
0
0
0
0
0
0
0
0
0
1
0
0
0
0
0
0
0
0
0
0
0
0
0
0
0
0
1
0
0
0
0
0
0
0
0
0
0
1
0
0
0
0
0
0
0
0
0
0
0
0
0
0
0
0
0
0
0
0
0
0
0
0
0
0
0
0
0
0
0
0
0
0
0
0
0
0
0
0
0
0
0
0
0
0
0
0
0
0
0
0
0
0
0
0
0
0
0
0
0
1
0
0
0
0
0
0
0
0
0
0
0
0
0
0
0
0
0
0
0
0
0
0
0
0
0
0
0
1
0
1
1
0
0
0
0
0
0
0
0
0
0
0
0
0
1
0
1
0
0
0
0
1
0
0
0
0
0
0
0
0
1
1
0
0
0
0
0
1
0
0
0
0
0
0
0
0
1
0
0
0
0
0
0
0
0
0
0
0
0
0
0
0
0
0
0
0
0
0
0
0
0
0
0
0
0
0
0
0
0
1
0
0
0
0
0
0
0
0
0
0
0
0
0
0
0
0
0
0
0
0
0
0
0
0
0
0
0
0
0
0
0
0
0
0
0
0
0
0
0
0
0
0
0
0
0
0
0
1
0
0
0
0
0
0
0
0
0
0
0
0
0
0
0
0
0
0
0
0
0
0
0
0
0
0
0
0
0
0
0
0
0
0
0
0
0
0
0
0
0
0
0
0
0
0
0
0
0
0
1
0
0
0
0
0
0
0
0
0
0
0
0
0
0
0
0
0
0
0
0
0
0
0
0
0
0
0
0
0
0
0
0
0
0
0
0
0
0
0
0
0
0
0
0
0
0
0
0
0
0
0
0
0
0
0
0
0
1
0
0
0
0
0
0
0
0
0
0
0
0
0
0
0
0
0
0
0
0
0
0
0
0
0
0
0
0
0
0
0
0
0
0
0
0
0
0
0
0
0
0
0
0
0
0
0
0
0
0
0
0
0
0
0
0
0
0
0
0
0
0
0
0
0
0
0
0
0
0
0
0
0
0
0
0
0
0
0
0
0
0
0
0
0
0
0
0
0
0
0
0
0
0
0
0
0
0
0
0
0
0
0
0
0
0
0
0
0
0
0
0
0
0
0
0
0
0
0
0
0
0
0
0
0
0
0
0
0
0
0
0
1
0
0
0
0
0
0
0
0
0
0
0
0
0
0
0
0
0
0
0
1
0
0
0
0
0
0
0
0
0
0
0
0
0
0
0
0
0
0
0
0
0
0
0
0
0
0
0
0
0
0
0
0
0
0
0
0
0
0
0
0
0
0
0
0
0
0
0
0
0
0
0
0
0
1
0
0
0
0
0
0
0
0
0
0
0
0
0
0
0
0
0
0
0
0
0
0
0
1
0
0
0
0
0
0
0
0
0
0
0
0
0
0
0
0
0
0
0
1
0
0
0
1
0
0
0
0
0
0
0
0
0
0
0
0
0
0
0
0
0
0
0
0
0
0
0
0
0
1
0
0
0
0
0
0
0
1
0
0
0
0
0
0
0
0
0
0
0
0
0
0
0
0
0
0
0
0
0
0
0
0
0
0
1
0
0
0
0
0
0
0
1
0
0
0
0
0
0
1
0
0
0
0
0
0
0
0
0
0
0
0
0
0
0
0
0
0
0
0
0
0
0
0
0
0
0
0
0
0
0
0
0
0
0
0
0
0
1
0
0
0
0
0
1
0
0
0
0
0
0
0
1
0
0
0
0
0
0
0
0
0
0
0
0
0
1
0
0
0
0
0
0
0
0
0
0
0
0
0
0
0
0
0
0
0
0
0
0
0
0
0
0
0
0
0
0
0
0
0
0
0
0
0
0
0
0
0
0
0
0
0
0
0
0
0
0
0
0
0
1
0
0
0
0
0
0
0
0
0
0
0
0
0
0
0
0
0
0
0
1
0
0
0
0
0
0
0
0
0
1
0
0
0
0
0
0
0
0
0
0
0
0
0
0
0
0
0
0
0
0
0
0
0
0
0
0
0
0
0
1
0
1
0
0
0
0
0
0
0
0
0
0
0
0
0
0
0
0
0
0
0
0
0
0
0
0
0
0
0
1
0
0
0
1
0
0
0
0
0
0
0
0
0
0
0
0
0
0
0
0
0
0
0
0
0
0
0
0
0
0
0
0
1
0
0
0
0
0
0
0
0
0
0
0
0
0
0
0
0
0
0
0
0
0
0
0
0
0
1
0
0
0
0
0
0
0
0
0
0
0
0
0
0
0
0
0
0
0
0
0
0
0
1
0
0
0
0
0
0
1
0
0
0
0
0
0
0
0
0
0
0
1
0
0
0
0
0
0
0
0
0
0
0
0
0
0
0
0
0
0
0
0
1
0
0
0
0
0
0
0
0
0
0
0
1
0
0
0
0
0
0
0
0
0
0
0
0
0
0
0
0
0
0
0
0
0
1
0
0
0
0
0
0
0
0
0
1
1
0
1
0
1
0
0
0
0
0
0
0
0
0
0
0
1
0
0
0
0
0
1
1
0
0
0
0
0
0
1
0
0
0
0
0
1
1
1
0
0
0
0
0
0
0
0
0
0
0
0
1
1
0
0
1
0
0
0
0
0
1
0
0
0
1
0
1
0
0
0
0
0
0
0
1
0
0
0
0
0
0
0
1
0
0
1
0
0
0
0
0
0
0
0
0
0
0
0
0
0
0
1
0
0
0
0
0
0
0
0
0
0
0
0
0
0
0
0
0
0
0
0
0
0
0
0
0
0
0
0
0
0
0
0
0
0
0
0
1
0
0
0
0
0
0
1
0
0
0
1
0
0
0
0
0
0
0
0
0
0
0
1
0
0
0
0
0
0
0
0
0
0
0
0
0
0
0
0
0
0
0
0
0
0
0
0
0
0
0
0
0
0
0
0
0
0
0
0
0
0
0
0
1
1
0
0
0
0
0
0
0
0
0
0
0
0
0
1
0
0
0
0
0
0
0
0
0
0
0
0
0
0
0
0
0
0
0
0
0
0
0
0
0
0
0
0
0
0
0
0
0
0
0
0
0
0
0
0
0
0
0
0
0
0
0
0
0
0
0
0
0
0
0
0
0
0
0
0
0
0
0
0
0
0
0
0
0
0
0
0
1
1
0
0
0
0
0
0
0
0
1
0
0
0
0
0
0
0
0
0
0
0
0
0
0
0
0
0
0
0
0
0
0
0
1
0
0
0
0
0
0
0
0
0
0
0
0
0
0
0
0
1
0
0
0
0
0
0
0
0
0
0
0
0
0
0
0
0
0
0
0
0
0
0
0
0
0
0
0
0
0
0
0
0
0
0
0
0
0
0
0
0
0
0
0
0
0
0
0
0
0
0
0
0
0
0
0
0
0
0
0
0
0
0
0
0
0
0
0
0
0
0
0
0
0
0
0
0
0
0
0
0
0
0
0
0
0
0
0
0
0
0
1
1
0
0
0
0
0
1
0
0
0
0
0
0
0
0
0
0
0
0
1
0
0
0
0
0
0
0
0
0
0
0
0
0
0
0
0
0
0
0
0
0
0
0
0
0
0
0
0
0
0
0
0
0
0
0
0
0
0
0
0
0
0
0
0
0
0
0
0
0
0
0
0
0
1
0
1
0
0
0
0
0
0
0
0
0
0
0
0
0
0
0
0
0
0
1
0
0
0
0
0
0
0
0
0
0
0
0
0
0
0
0
0
0
0
0
0
0
0
0
0
0
0
0
0
0
0
0
0
0
0
0
0
0
0
0
0
0
0
0
0
0
0
0
0
0
0
0
0
0
0
0
0
0
0
0
0
0
0
0
0
0
0
0
0
0
1
0
0
0
0
0
0
0
0
0
0
1
0
0
0
0
0
0
0
0
0
0
0
0
0
0
0
0
0
0
0
0
0
0
0
0
0
0
0
0
0
0
0
0
0
0
0
0
0
1
0
0
0
0
0
0
0
0
0
0
0
0
0
0
0
0
0
0
0
0
0
0
0
0
0
0
0
0
0
0
0
0
0
0
0
0
0
0
0
0
0
0
0
0
0
0
0
0
0
0
0
0
0
0
0
0
0
0
0
0
0
0
0
0
0
0
0
0
0
0
0
0
0
0
0
0
0
0
0
0
0
1
0
0
0
0
0
0
0
0
0
0
0
0
0
0
0
0
0
0
0
0
0
0
0
0
0
0
0
0
0
0
0
0
0
0
0
0
0
0
0
0
0
0
0
0
0
0
0
0
0
0
0
0
0
0
0
0
0
0
0
0
0
0
0
0
0
0
0
0
0
0
0
0
0
0
0
0
0
0
0
0
0
0
0
0
0
0
0
0
0
0
0
0
0
0
0
0
0
0
0
0
0
0
0
0
0
0
0
0
0
0
0
0
0
0
0
0
0
0
0
0
0
0
0
1
0
0
0
0
0
0
0
0
0
0
0
0
0
0
0
0
0
0
0
0
0
0
0
0
0
0
0
0
0
0
0
0
0
0
0
0
0
0
0
0
0
0
0
0
0
0
0
0
0
0
0
0
0
0
0
0
0
0
0
0
0
0
0
0
0
0
0
0
0
0
0
0
0
0
0
0
0
0
0
0
0
1
0
0
0
0
0
0
0
1
0
0
0
0
0
0
0
0
0
0
0
0
0
0
0
0
0
0
0
0
0
0
0
0
0
0
0
0
0
0
0
0
0
0
0
0
0
1
0
0
0
0
0
0
0
0
0
0
0
0
0
0
0
0
0
0
0
0
0
1
0
0
0
0
0
0
0
0
0
0
0
0
1
1
0
0
0
0
0
0
0
0
0
0
0
0
0
0
0
1
1
0
1
0
0
0
0
0
0
0
0
0
1
0
0
0
0
0
0
1
0
0
0
0
0
0
0
0
0
0
1
0
0
0
0
1
0
1
0
0
0
0
0
0
0
1
0
0
0
1
0
0
0
1
0
1
1
0
0
1
1
0
0
0
1
0
0
0
1
0
0
0
0
0
0
0
0
0
1
0
0
0
0
0
0
1
0
0
0
0
0
0
0
0
0
0
0
0
0
0
0
0
0
0
0
0
0
0
0
0
0
0
0
1
0
0
1
0
0
0
0
0
0
0
0
0
0
0
0
0
0
0
0
0
0
1
0
0
1
0
0
0
0
0
0
0
0
0
0
0
1
0
0
1
0
0
0
0
0
0
0
0
0
0
0
1
1
0
0
0
0
0
0
0
0
0
0
0
0
1
0
0
0
0
0
0
0
0
0
0
0
0
0
0
0
0
0
1
0
0
0
0
0
0
0
0
0
0
0
0
0
0
0
0
0
1
0
0
0
0
0
0
0
0
0
0
0
0
0
0
0
0
0
0
0
0
0
0
0
0
0
0
0
0
0
0
0
0
0
0
0
0
0
0
0
0
1
0
0
0
0
0
0
0
0
0
0
0
0
0
0
0
0
0
0
0
0
0
0
0
0
0
0
0
0
0
0
0
0
0
0
0
0
0
0
0
0
0
0
0
0
0
1
0
0
0
0
0
0
0
0
0
0
0
0
0
0
0
0
0
0
0
0
0
0
0
0
0
0
0
0
0
0
0
0
0
0
0
0
0
0
0
0
0
0
0
0
0
0
0
1
0
0
0
0
0
0
0
0
0
0
1
0
0
0
0
0
0
0
0
0
0
0
0
0
0
0
1
0
0
1
0
0
0
0
0
0
0
0
0
0
0
0
0
0
0
0
0
0
0
0
0
0
0
1
0
0
0
0
0
0
0
0
0
0
0
0
0
0
0
0
0
0
0
0
0
0
0
0
0
0
0
0
0
0
0
0
0
0
0
1
0
0
0
0
0
0
0
0
0
0
0
0
0
0
0
0
0
0
0
0
0
0
0
0
0
0
0
0
0
0
0
0
0
0
0
0
0
0
0
0
0
0
0
0
0
0
0
0
0
0
0
0
0
0
0
0
0
0
0
0
0
0
0
0
0
0
0
0
0
0
0
0
0
0
0
0
1
0
0
0
0
0
0
0
0
0
0
0
0
0
0
0
0
0
0
0
0
0
0
0
0
0
0
0
0
0
0
0
0
0
0
0
0
0
0
0
1
0
0
0
0
0
0
0
0
0
0
0
0
1
1
0
0
0
0
0
0
0
0
0
0
0
0
0
0
0
0
0
0
0
0
0
0
0
0
0
0
0
0
0
0
0
0
0
0
0
0
0
0
0
0
0
0
0
0
0
0
0
0
0
0
0
0
0
0
0
0
0
0
0
0
0
0
0
0
0
0
0
0
0
0
0
0
0
0
0
0
0
0
0
0
0
0
0
0
0
0
0
0
0
0
0
0
0
0
0
0
0
0
0
0
0
1
0
1
0
0
0
0
0
0
0
1
1
1
1
0
0
0
0
0
0
0
0
0
0
0
0
0
0
0
0
0
0
0
0
0
0
0
0
0
0
0
0
1
1
0
0
0
0
0
0
0
0
0
0
0
0
0
0
0
0
0
0
1
0
0
0
0
0
0
0
1
1
0
1
1
0
0
1
0
0
0
0
0
0
0
1
0
1
0
0
0
0
0
0
0
0
0
0
0
0
0
0
0
0
0
0
0
0
0
0
0
0
0
0
0
1
1
0
0
0
1
1
0
0
0
0
1
0
0
1
0
1
0
0
0
0
0
1
0
0
0
1
0
0
0
0
0
0
0
0
0
0
0
0
0
0
0
0
0
0
0
0
0
0
0
0
0
0
0
1
0
0
0
0
0
0
1
0
0
0
0
0
0
0
0
0
0
0
0
0
0
0
0
0
0
0
0
0
0
0
0
0
0
0
0
0
1
0
1
0
0
0
0
0
0
0
1
0
0
0
0
0
0
0
0
0
0
0
1
0
0
0
0
0
0
0
0
0
1
0
0
0
0
0
0
0
1
0
0
0
0
0
0
0
1
0
0
0
0
0
0
0
0
0
0
0
0
0
0
0
0
0
0
0
1
0
1
0
0
0
0
0
1
0
0
0
0
0
0
0
0
0
0
0
0
0
0
0
0
0
0
0
0
0
0
0
0
0
1
0
1
0
0
0
0
0
0
0
0
0
1
0
0
0
0
0
1
0
0
0
0
0
0
0
0
0
0
0
0
0
0
0
1
0
0
0
0
0
0
0
0
1
0
0
0
0
0
0
0
0
0
0
0
0
0
0
0
0
0
0
0
0
0
0
0
0
0
0
0
0
0
0
1
0
0
0
0
0
0
0
0
0
0
0
0
0
0
0
0
1
0
0
0
0
0
0
0
0
1
0
0
0
0
0
0
0
0
0
1
0
0
0
0
0
1
0
0
0
0
0
0
0
0
0
0
0
0
0
0
0
0
0
0
0
1
0
0
0
0
0
0
1
0
0
0
0
0
0
0
0
1
0
0
0
0
0
0
0
0
0
0
0
0
0
0
1
0
0
1
0
0
0
1
0
0
0
0
0
0
0
0
0
0
0
0
0
0
0
0
1
0
0
0
0
0
0
0
0
0
0
1
0
1
0
0
0
0
0
0
1
0
0
0
0
0
0
0
0
0
0
0
0
0
0
0
0
0
0
0
0
0
0
0
0
0
0
0
1
1
0
0
0
0
0
0
1
0
0
0
0
0
0
0
0
0
0
0
0
0
1
0
0
0
0
0
0
0
1
0
0
0
0
0
0
0
0
0
0
0
0
0
0
0
0
0
0
0
0
0
0
0
0
0
0
0
1
0
0
0
0
0
0
0
0
0
0
1
0
0
1
0
0
0
0
0
0
0
0
0
0
0
0
0
0
0
0
0
0
0
0
0
0
0
0
0
0
0
0
0
1
0
0
0
0
0
0
0
1
0
0
0
0
0
0
0
1
0
0
0
0
1
0
0
0
0
0
0
0
0
0
0
0
1
0
1
0
0
0
1
0
				</DataArray>
				<DataArray type="Float64" Name="h" NumberOfComponents="1" Format="ascii">
0.7547532810
0.7547054067
0.7751850467
0.7648603381
0.7754939178
0.7748236227
0.7679017539
0.7518989531
0.7640305094
0.7414370179
0.7570345415
0.7734208228
0.7441863327
0.7558136726
0.7514730666
0.7273576135
0.7676963904
0.7422678062
0.7480266239
0.7591130735
0.7822962492
0.7381604841
0.7532619661
0.7855423267
0.7607301205
0.7260292544
0.7291053823
0.7657456065
0.7673080483
0.7456967366
0.7506093707
0.7602156151
0.7291177644
0.7813655376
0.8185622000
0.7827738852
0.7982747586
0.7428052912
0.7563274110
0.7876081969
0.7730827106
0.7892996799
0.7391193122
0.7591693807
0.7877574417
0.7674145244
0.7519331864
0.8254040167
0.8913823618
0.8749599707
0.7974074171
0.7771894595
0.7668256582
0.8253117500
0.7966981398
0.7261865329
0.7761250057
0.8418160709
0.8450273523
0.8304044254
0.8674505865
0.8623952161
0.8881410357
0.7840770541
0.7556308687
0.7776807173
0.8547664374
0.8717647806
0.8579702124
0.8514767697
0.8466707230
0.8046501240
0.7273911512
0.8400177125
0.8436768557
0.7232778449
0.8425517602
0.8632611353
0.8356782470
0.7436347172
0.8804119083
0.7931758300
0.9220596853
0.8515019942
0.7232261385
0.7507873824
0.8850181328
0.8263645776
0.8637992473
0.9141778388
0.8873753030
0.7373378400
0.8714169374
0.9019474641
0.7805875813
0.7634047042
0.7987341096
0.7351459279
0.7541240131
0.8855087437
0.9157820836
0.8806994481
0.8094006452
0.8348037187
0.7238304443
0.8327074832
0.7619559794
0.9017543973
0.8611357242
0.7911362005
0.8906571115
0.9053190165
0.8789229027
0.8882238221
0.8343167272
0.9091495823
0.8184117042
0.7372698130
0.9024424417
0.8557981732
0.7294417461
0.8090269762
0.7284749313
0.7105723539
0.8778366290
0.9043383732
0.8417302015
0.7043679075
0.9058773742
0.9112228170
0.9011529018
0.7764265655
0.8616116678
0.9107909187
0.7329094954
0.9003491244
0.7104314709
0.9125574347
0.8929887660
0.7188069876
0.6961068415
0.7190061495
0.9046492699
0.7175558838
0.7443839749
0.8962153709
0.7150648498
0.9217682175
0.7155371075
0.9225634164
0.7003996299
0.9144734978
0.9144525290
0.9186713751
0.8893923734
0.9156364858
0.9204546853
0.7118798538
0.9207218631
0.6246801044
0.7178814672
0.9199030822
0.7092328570
0.6762857494
0.7078658334
0.9180744739
0.7140262912
0.7171028060
0.6708043298
0.9156805873
0.9194579631
0.6117847925
0.9194847175
0.7013360204
0.7095524359
0.9249061320
0.7145439085
0.9277662884
0.9237191698
0.6643625641
0.9157701552
0.7027011342
0.6070847833
0.7203739178
0.5955345779
0.5600446102
0.7093961284
0.9221234656
0.6453589553
0.5428880800
0.6954840169
0.9235223803
0.5584610874
0.7040251052
0.9247335564
0.9253500865
0.6650110878
0.6902219751
0.6991385319
0.9266339973
0.5391876446
0.7381764570
0.5516239816
0.9231193222
0.6884211136
0.5710401378
0.7063906419
0.6864657818
0.6976218588
0.7033132412
0.6789960007
0.5675203760
0.6400725564
0.5572043708
0.6998927663
0.6716026579
0.7071617710
0.6198962430
0.6877633665
0.5653836279
0.7010029131
0.9056948448
0.6966790810
0.8670949765
0.7312353853
0.9304296995
0.9262658518
0.8092664510
0.6920833134
0.9182452957
0.9257218670
0.8886001119
0.7719018271
0.9292313179
0.9313622812
0.8408619334
0.6692090754
0.6939674845
0.5527029905
0.6861671398
0.6520090360
0.6770122098
0.5747991004
0.6984682604
0.6905201827
0.7058745466
0.5886084763
0.6795928351
0.6892689791
0.6209403099
0.6926078859
0.6641927685
0.6378546685
0.6609142625
0.6418482533
0.5603690300
0.7042775465
0.7015646029
0.5572066583
0.8821652490
0.6762751242
0.7039986872
0.7924561734
0.8602154604
0.7529060737
0.9330512254
0.9364644295
0.6704773889
0.9310798262
0.9052593814
0.9301742607
0.6899145631
0.9158395860
0.8282135039
0.8576760431
0.6620040914
0.7500334403
0.8293053871
0.8853535482
0.7105260985
0.9255826388
0.9350041471
0.9326092117
0.9373788536
0.9201570279
0.9013705344
0.7932911927
0.6792837165
0.5909515714
0.5765217993
0.6919075190
0.6408538869
0.6669981193
0.6809276276
0.6670668041
0.6249550460
0.6794297656
0.6767923561
0.6178299486
0.5603705675
0.5620355801
0.6898329987
0.6539924350
0.6128944575
0.6304794328
0.6757773643
0.6397110422
0.6880871857
0.6345288512
0.6784977552
0.8136456374
0.7749761756
0.9370650151
0.6389254531
0.9336083661
0.8770829294
0.6544658337
0.9167120380
0.9433867995
0.6674933990
0.8520031734
0.7276867758
0.9041103644
0.9388752256
0.7275193760
0.7731242657
0.8167940705
0.9388248620
0.8480855054
0.8995666911
0.9286937158
0.9437354051
0.9415257476
0.6329845679
0.8810956408
0.6812639165
0.9215008393
0.6757580948
0.9641513418
0.6479635195
0.6014753108
0.6586821550
0.5907699916
0.6132714047
0.6566075173
0.6639765233
0.6696547670
0.5767101617
0.9518120101
0.6851248157
0.5896805819
0.8608233383
0.6760827005
0.6299411585
0.9664342474
0.6584398642
0.7487103235
0.6174774778
0.6696407378
0.9076935178
0.9191607695
0.9706601750
0.5620347067
0.6283369626
0.6021044783
0.6638033532
0.6534236500
0.7094805140
0.7710081469
0.5626350618
0.8254601429
0.9428442635
0.6136418913
0.9508399591
0.8709040987
0.8443359136
0.9447695682
0.5769689976
0.9366463612
0.6537444213
0.6120905590
0.9168781071
0.9440288112
0.6337299066
0.9027441014
0.6443144272
0.7023191526
0.7985273391
0.7578185659
0.6278058603
0.9484627200
0.6114545766
0.8384598097
0.5349469229
0.9498444008
0.8768302725
0.5699270027
0.6364339650
0.6388216024
0.5700121763
0.7053071308
0.9312026375
0.5929704451
0.8969062798
0.5475999302
0.9455479914
0.9225184841
0.6524015007
0.7527979086
0.6132244572
0.8046327578
0.6707898689
0.8926125210
0.7395451406
0.6591579832
0.9600591297
0.9353946548
0.6384412192
0.8936477243
0.6694272856
0.7113682245
0.6079514720
0.6581862879
0.9382911181
0.9697167374
0.8218710436
0.9582919352
0.5893448309
0.9237330670
0.5909131760
0.7218319277
0.9751067627
0.8667553891
0.9563612040
0.7822389256
0.8201351674
0.9584217921
0.9170960713
0.9552809237
0.7551864961
0.8251200095
0.8770332033
0.6618954329
0.9272294304
0.9336764675
0.6510599653
0.7211404878
0.8878637932
0.8613417702
0.9314641052
0.8784611989
0.9581341616
0.5626308314
0.6327811249
0.6059884444
0.6079383405
0.9806498165
0.9620350953
0.8155972353
0.9768223959
0.6230092156
0.5832192003
0.6448114120
0.9507399102
0.6227221741
0.8651534782
0.7731167263
0.6788534650
0.5204660387
0.6478871573
0.9501480153
0.6222632895
0.9167373239
0.5908261585
0.5992126512
0.7849133697
0.9821582246
0.6068751668
0.5875707431
0.5851749383
0.6069344084
0.5774513503
0.6493165284
0.9520538861
0.9768262640
0.9749082984
0.9332951868
0.6258875936
0.8289559658
0.6339450796
1.0344291347
0.6322356045
0.9856438681
0.6179501773
0.5699193488
0.6345649272
0.6354148881
0.9829089770
0.8941946497
0.6048423904
0.9579639205
0.9561966092
0.6251344027
0.6388160145
0.5700360072
0.6064665373
0.7328156698
0.5627152672
0.5944870118
1.0321673159
0.6259028386
0.5797656224
0.9234054126
0.6222546278
0.7581840665
0.5875614045
0.8983320787
0.8649567414
0.5754314122
0.6223815350
0.5797629505
0.8092757782
0.9335666934
0.9684443040
0.6408528704
0.9439138546
0.5846530361
0.8730257151
0.4838686168
0.5817543769
0.9094988846
0.6447994130
0.8433325233
0.6417141214
0.6478811982
0.4590667318
0.6179436889
0.6354035027
0.5627080900
0.4838997970
0.5774478072
0.4920590387
0.6158423608
0.5580419808
0.5630866239
0.6338784519
0.5738382922
0.5908227456
0.5284778857
0.6273034612
0.9796359153
0.5938177708
0.6438082228
0.4185263005
0.6059769740
0.4227301147
0.5788864266
0.6227569722
0.9495594356
0.9703104360
0.5937395006
0.6060819916
0.9620265654
0.6493066388
0.4340931477
0.9171290346
0.6064614516
0.7730941395
0.9897732470
0.9581414774
0.6083352667
0.9703908395
0.9403130887
0.9349863042
0.6693992835
0.5755038955
0.6140990212
1.1052267685
0.9234143394
0.5924024850
0.6304426169
0.8613669769
0.9579725545
0.5793209749
1.0911613492
0.6391116695
0.9552762999
0.8926317779
0.7211027666
0.5803057974
0.9582936805
0.4204533783
0.6370464707
0.4185389924
0.5558628146
0.6327640223
0.5820395222
0.5591516197
0.9851309031
0.5827052606
0.4906937089
0.6064560282
0.9795300203
0.6379105501
0.8218799953
0.5401206164
0.4459388360
0.9762449724
0.9354175053
0.5679456456
0.4721729953
0.6271576082
0.9672941582
0.5934643984
1.1052433283
0.6412897956
1.0222433732
0.6417088883
0.6083267979
0.5817508444
0.6408431043
0.9790655889
0.9537139511
0.6038558565
0.5754202725
0.6196733820
0.5833262814
0.9831674157
0.6059640162
0.5018521113
0.4459406413
0.5650282993
0.4697923297
0.5788826850
0.6223698301
0.5937332328
0.6438015076
0.9880963888
0.9825285460
0.9853036565
1.0544875713
0.5580358515
0.4446639713
0.4308095107
0.5871532953
0.9852529391
0.9556206447
0.4185372560
0.5058589025
0.9808625938
0.6267355998
0.6248941334
0.5849534371
0.6377428213
0.6839712596
0.6013562089
0.5752824740
0.6338658965
0.9927121940
0.6336058782
0.5638751394
0.6290210605
0.9987462546
0.9844469929
0.9810420534
1.0038607761
0.5912406748
0.6148417261
0.6095062526
0.6382761104
0.9832198715
0.9819864261
0.4590784561
0.4499047393
0.4481230478
0.5361671964
0.9985778898
0.5401412997
0.5039873119
0.9650990608
0.9748346776
0.5610199708
0.5374556128
0.9973983977
0.5287700136
0.5015498026
0.5816137506
0.9838320729
0.9713124959
0.9739714840
0.5608417798
0.5871995159
0.6009644620
0.5766920305
0.5536450517
0.9888298564
0.9785237060
0.9804753714
0.9908666312
0.6719651461
0.9659607018
0.9514343535
0.5867230891
0.9825300738
0.9831140099
0.5679520696
0.9485397909
0.5938243589
0.9746418311
0.6134392410
0.6135452644
0.9525690171
0.5934605115
0.9626319910
0.9749793587
0.6060840358
0.9807661587
0.5881272030
0.5645518989
0.9842380304
0.9844810030
0.5703586396
0.7594990505
0.7650769407
0.7650474096
0.7594301421
0.7677544864
0.7734204898
0.7570409311
0.7608119727
0.7719474360
0.7748381081
0.7754728113
0.7719079950
0.7640079269
0.7515035482
0.7679035043
0.7492091225
0.7608061495
0.7677527651
0.7471887461
0.7422726839
0.7648747933
0.7751805207
0.7481080269
0.7457067736
0.7358528559
0.7698223811
0.7518835738
0.7260660432
0.7607163879
0.7414380741
0.7390023491
0.7441408672
0.7858864980
0.7278947014
0.7485234189
0.7491969511
0.7506120330
0.7471612067
0.7813515663
0.7291452999
0.7603016401
0.7279745687
0.7876154700
0.7443100178
0.7677091852
0.7273848480
0.7392195125
0.7564711146
0.7698255993
0.7358351228
0.7731367189
0.7558084152
0.7591370017
0.7858860071
0.7531309892
0.8255081499
0.7381034743
0.8005449309
0.7389619678
0.7823024870
0.7484366368
0.7407351237
0.7796686469
0.8253897249
0.7279976866
0.7877846214
0.7973876871
0.7520668841
0.7655834821
0.7855224322
0.7672171651
0.7762324239
0.7415143343
0.7290522337
0.8038221760
0.7360289890
0.7441842322
0.7972672180
0.8173518523
0.7279428251
0.7669318843
0.8255165438
0.8871066512
0.8765194988
0.7406424085
0.8005484047
0.8017460441
0.7795668413
0.7827266607
0.7557903750
0.7426684968
0.8158399930
0.8185740214
0.8880986899
0.8717111413
0.7884176816
0.7982873441
0.7841380025
0.7972234366
0.8329715190
0.8341907211
0.7590067877
0.8399842129
0.8244989318
0.8046684322
0.7274569364
0.8526819428
0.7258563567
0.7447301290
0.8038221252
0.8668711318
0.8173723581
0.7892435473
0.8425337706
0.8466514069
0.8456162415
0.8436549302
0.7413794737
0.7396372740
0.8579514948
0.8147598098
0.7360336924
0.8514555787
0.8017339060
0.8158399682
0.7677623046
0.7883369760
0.8588330916
0.8177121098
0.8687680495
0.8914303431
0.7771043503
0.8765806508
0.7672624965
0.7932663358
0.8514522492
0.8028276618
0.8871624990
0.8750227641
0.8674633162
0.8624118819
0.7395032635
0.8726073990
0.8456479136
0.8450453903
0.8291824900
0.8244871006
0.7152497651
0.7234438395
0.8329840622
0.8147829155
0.8103227881
0.7966627228
0.8575612879
0.8526974815
0.8668892524
0.7261268876
0.8021634329
0.8474218174
0.7258141615
0.8252857188
0.8342013687
0.8304027588
0.7373761672
0.8418363578
0.7445802953
0.8714051255
0.8588640114
0.8347789381
0.7542433982
0.8027711409
0.7193395826
0.8177020587
0.8806912529
0.8477939699
0.8775768126
0.8372453956
0.7775769691
0.9157861876
0.8548448447
0.8297406511
0.7352337389
0.8766645698
0.7634828798
0.8104403923
0.8688744908
0.8855064007
0.8326050031
0.7676649627
0.9222862464
0.8020876571
0.8611145077
0.9052798109
0.8726215583
0.8474459376
0.8788986109
0.8103005111
0.7233244011
0.8854595563
0.8291857840
0.8632824097
0.7233814339
0.8883014244
0.7152622998
0.8905737004
0.7912256754
0.8575770547
0.8775891358
0.9222594000
0.8179567959
0.8766737491
0.7507761310
0.8090318114
0.8590109263
0.8297642135
0.7318277843
0.8104052715
0.8372596987
0.7232284057
0.7435780869
0.8850207159
0.9220319554
0.8804158894
0.8184634226
0.8356967682
0.8479439975
0.7294454545
0.8264238889
0.7193115295
0.8883034838
0.7764489199
0.8719365120
0.7198825001
0.9043254896
0.8745598424
0.8899555744
0.8638253763
0.7805394262
0.9020062249
0.9095111587
0.9141831609
0.8873805888
0.9010995143
0.8461849201
0.8777855201
0.8417122560
0.8855990581
0.9112377079
0.8093645841
0.9129038850
0.8646754787
0.8179099360
0.7318333110
0.8590416347
0.8909916892
0.7329187927
0.9003542028
0.8615725022
0.7238286625
0.7987908986
0.7443731043
0.8496857277
0.7190104869
0.8737792876
0.7199011498
0.9094932832
0.8882467901
0.9017752197
0.7189759208
0.8462044163
0.8899716794
0.8343179423
0.7155362820
0.8720960993
0.9046628411
0.6916812436
0.9091252249
0.8745884053
0.8962255054
0.9011062117
0.7619987039
0.7284715194
0.7153322149
0.8407948629
0.9160599975
0.9128912486
0.8910273001
0.6958452824
0.9093292677
0.9122246559
0.8925548090
0.8558315034
0.8649082463
0.9144823071
0.7372623025
0.8966578155
0.9024431123
0.7442993466
0.7003313617
0.9144670636
0.8893936471
0.7189677930
0.6916762529
0.7171939868
0.7078473059
0.8738436823
0.9192535378
0.7284658242
0.6884806232
0.9233868863
0.8253085807
0.8501840178
0.7105627335
0.9058642413
0.7179356575
0.7197441625
0.7285446361
0.9011458398
0.7374745483
0.7092105618
0.9021221650
0.9199239877
0.7043710894
0.9207398587
0.8925475721
0.7104822730
0.9107791155
0.9164197738
0.8125925934
0.9122107033
0.9127555872
0.9125392218
0.9194980009
0.7493382287
0.7096518741
0.8929847723
0.7442881323
0.8407345083
0.6959101683
0.9160492975
0.7153834374
0.8966494004
0.9157003739
0.9031575841
0.9093151278
0.9194663138
0.7012967345
0.9225463202
0.6070580369
0.7948446450
0.7197485141
0.6884921950
0.9186957661
0.9176420055
0.9211300337
0.7175383800
0.9217479657
0.7150170321
0.6643185657
0.9233708092
0.7374686423
0.8254549694
0.6343917167
0.6961318576
0.9157953301
0.9021091741
0.7145752235
0.9002161489
0.7188209503
0.9192345583
0.6597607351
0.6453563896
0.9156105422
0.9204431728
0.7096923631
0.7763642892
0.9164030654
0.7342367801
0.7493393108
0.8127557837
0.5955387078
0.9127328727
0.9186542532
0.7118936502
0.9031475628
0.7094014779
0.7561276807
0.9247445221
0.7140011712
0.6597822863
0.9186681420
0.9253787638
0.6344297279
0.9211172298
0.9002076866
0.9218015358
0.5962201136
0.9176264137
0.7949370569
0.6696258447
0.9235458785
0.9084820570
0.6763128648
0.9180480448
0.7039936754
0.9262312238
0.6246982381
0.7380833591
0.9245321079
0.6117844028
0.5516226370
0.7095316642
0.9231261574
0.7764826904
0.6707914201
0.5391861587
0.7342316290
0.6990795545
0.9238547536
0.9237032318
0.6830221927
0.5962302863
0.6696378977
0.5675166687
0.9262104240
0.9217773939
0.6153330401
0.9263119652
0.7027091942
0.9084719506
0.9249005862
0.7561966573
0.5475310067
0.5418255116
0.9277450274
0.6400166966
0.6975194030
0.6955273277
0.9257314175
0.9245310147
0.5428893850
0.9238623353
0.9237087744
0.9254289926
0.7204511970
0.5600425465
0.9221232951
0.7009671888
0.5885830057
0.7058943581
0.6786691794
0.6904736754
0.6902835167
0.5418263356
0.6678191836
0.5762377949
0.6984741045
0.6613702346
0.6830731394
0.6691464395
0.5584660088
0.5458693463
0.9262822967
0.6650764832
0.5500662362
0.7015504553
0.6711070256
0.6608486239
0.7043033787
0.6377905240
0.6795470477
0.5475324517
0.5527009845
0.6153760783
0.9274355545
0.6572691107
0.6884535015
0.9236998838
0.9012438091
0.6898945433
0.9254431844
0.8573927293
0.7104554865
0.9326197793
0.9255888696
0.9304447411
0.7930967614
0.6704263479
0.9157959599
0.9266406412
0.8819198337
0.7527877995
0.9310742296
0.9310627238
0.9330728003
0.8279558899
0.6790562734
0.6919286126
0.6550870650
0.5653937087
0.6794157275
0.6407979235
0.6614485905
0.6679298164
0.6787419374
0.5835623657
0.6363616146
0.6809030728
0.5909281211
0.5762496690
0.7032952928
0.6865316837
0.7063433874
0.5710548409
0.6877983408
0.6898357224
0.6344756862
0.5458693822
0.6880995124
0.6539395864
0.6199512192
0.6716749605
0.6304276907
0.6634239910
0.5535502384
0.7071207336
0.6711815028
0.6999218028
0.5500655099
0.8887718815
0.6674552064
0.6259112450
0.6812494749
0.7729845563
0.8477931784
0.7720426248
0.9310383670
0.9313375273
0.9388305496
0.6921592558
0.9292371808
0.9356855010
0.8993777878
0.9286720810
0.6966856958
0.9274264584
0.9182694303
0.8410907967
0.8673335613
0.6389231937
0.7276291582
0.8134103027
0.8768052668
0.7313367622
0.9262506555
0.9304176534
0.9370547976
0.6573347410
0.9304176000
0.9388893801
0.9166238443
0.9358668803
0.9057784228
0.8094585214
0.6757779854
0.6492996940
0.5748148229
0.5835827578
0.5907561822
0.6939545599
0.6520728240
0.6065248793
0.6696491899
0.6364114198
0.6770580413
0.6586665212
0.6132326600
0.6861634514
0.6551541370
0.6760961171
0.6299113196
0.5535488798
0.5558652325
0.6892847802
0.6642408272
0.6020777199
0.6554484756
0.6419120921
0.6634740659
0.6696468033
0.6282972531
0.6925854677
0.6209936178
0.6524415175
0.8295585787
0.7527537628
0.9350135287
0.6620414684
0.9311618685
0.8855914985
0.6442817958
0.9202166441
0.9358587200
0.9408636141
0.9455461674
0.6002959152
0.6762985478
0.8382516711
0.7501544905
0.8967133369
0.9373594493
0.7023425912
0.7926484963
0.7983915451
0.9364542392
0.6259370645
0.9402629064
0.8604918176
0.9053971267
0.9301811590
0.9447728280
0.9440154778
0.6121134796
0.8706794652
0.7040657974
0.9167648894
0.9356684528
0.9600635723
0.7218510721
0.5863613993
0.8936708430
0.6792657025
0.6493437191
0.9642032741
0.9590470947
0.6384400314
0.7202690229
0.5908988892
0.6670693044
0.8776519132
0.9382868191
0.9700516297
0.5765331250
0.6250084019
0.6065493823
0.6581897772
0.6591744664
0.6670226689
0.6708032961
0.6991567003
0.8201556659
0.5893440969
0.7938433720
0.9303582280
0.6440843544
0.9543184279
0.6880601516
0.5832106684
0.8738880440
0.6767927885
0.6178675951
0.9647301596
0.9650594407
0.6510693477
0.7500295623
0.6059730494
0.6757599278
0.8987573848
0.9260589946
0.9684445099
0.5558632189
0.6397571087
0.6129413005
0.6470585486
0.6619096965
0.6554743275
0.6398640588
0.7459745788
0.7884625758
0.5570462902
0.8383519403
0.9472096483
0.6230008989
0.6193646153
0.9520498909
0.5871967135
0.8813316508
0.4884885416
0.9455617080
0.8288623252
0.9437244938
0.5851895113
0.5794983976
0.6409540230
0.9332533732
0.6339476193
0.5534442028
0.6322706795
0.9402682657
0.6329603883
0.5877009131
0.9215870358
0.5606304944
0.9415366094
0.6227120399
0.8940799094
0.6544926775
0.7275651415
0.8169963196
0.6103309556
0.7328490488
0.6251319545
0.9507276085
0.5992227954
0.8522476659
0.4906606148
0.9501485967
0.8650405860
0.9408602710
0.5662955512
0.5655457199
0.6344962260
0.9442145310
0.6391274470
0.5535269275
0.6789050987
0.9336334242
0.6002942029
0.5826872121
0.9042817651
0.5204350856
0.9433829516
0.9166443155
0.6784920168
0.7750994143
0.6068658890
0.7848799599
0.6578291344
0.9476969420
0.9020816240
0.9499985015
0.8649554769
0.7202580171
0.8092761732
0.8539375309
0.6639590010
0.9611366912
0.9012692411
0.9395717197
0.9611452564
0.8770385652
0.6479604707
0.9032572095
0.6877302586
0.6991368947
0.7360160533
0.6139256650
0.8776668792
0.6566168710
0.9428881972
0.9700496898
0.8386061755
0.9495767191
0.9032679484
0.9095332830
0.9576534366
0.5767134089
0.6105596953
0.9303395898
0.6015041854
0.6533997228
0.7113899332
0.9796458698
0.9703205490
0.7359858150
0.8433410522
0.9743122219
0.8776313263
0.9590421803
0.9706665847
0.6441063186
0.5863719287
0.7938296155
0.8359097417
0.9697184478
0.6851153027
0.9612043338
0.9237434024
0.9237686801
0.9556049690
0.7874467009
0.7094679094
0.7845380335
0.8727227027
0.6637966639
0.9642029395
0.9230759662
0.9479466596
1.0036257232
0.6584243726
0.9191497304
0.7423807959
0.6180924591
0.6181029232
0.8525377323
0.6470666326
0.9518140016
0.9664286615
0.8739459830
0.9370522169
0.8873508574
0.9556594713
0.5570432005
0.6407981926
0.7822508700
0.9076611219
0.6175027557
0.6139036650
0.9790723662
0.9643942988
0.7709890469
0.8134379181
0.9759991725
0.8383340910
0.9472097567
0.9750975641
0.6136584816
0.5897054987
0.7500163830
0.8608136360
0.6504213085
0.9484719261
0.9672973165
0.9795444082
0.9442221537
0.6337428094
0.6069171392
0.8769882280
0.6391230981
0.9703810718
0.7945348167
0.7052757286
0.5476303598
0.9851440905
0.6373992299
0.5794875489
0.6476440437
0.9498393813
0.6307187790
0.6319887001
0.9808761399
0.9226075474
0.6210822559
0.9458180778
0.9686027486
0.6193637296
0.6364235769
0.5713661688
0.5713928875
0.6016325748
0.6114253486
0.8047389003
0.9831594874
0.6132293959
0.5209834666
0.5760488396
0.5769556603
0.6141166627
1.0595063177
0.6012610900
0.6229318531
0.5784490606
0.5859136698
0.9284609705
0.6521829882
0.9508415548
0.9762545984
0.9760298050
0.9366762285
0.6239668283
0.8444871785
0.6344876412
0.9806136541
0.6536959112
0.5210080795
0.9852649394
0.6097232318
0.5655379974
0.6398560015
0.9455640319
0.6370481405
0.6434249806
0.9834534466
0.9028875688
0.6012476174
0.9464287145
0.9573892189
0.6278048899
0.6409470588
0.5535534019
0.6308093787
0.6175401375
0.5871976399
0.7578479776
0.9840420959
0.6103385547
0.5575618433
0.5662865097
0.6368661594
0.5842171317
0.9980121176
0.6021981905
0.6210948662
0.5869547542
0.9085971413
0.4521431274
0.6374038208
0.6319765417
0.8770599051
0.5760434708
0.9012531335
0.7551906934
0.5842141936
0.4772274821
0.8034007866
0.6017540684
0.5858217151
0.5466457627
0.9721756918
0.6138349385
0.7888096748
0.5825163416
0.5869581990
0.5223324548
0.7888050095
0.7884435629
0.8776723300
0.6272069078
0.9428807208
0.9647340876
0.7581481065
0.6398454792
0.9721655398
0.5933964345
0.6355281390
0.9476731177
0.9260750130
0.4141649189
0.5868507095
0.6578471377
0.6320916768
0.8539401344
0.8254459663
0.5703098770
0.4121697852
0.9563660604
0.5967432557
0.6093715207
0.9641520025
0.9683020103
0.7459669749
0.9167742118
0.9787218053
0.5787194098
0.6178983778
0.9167357342
0.9533094865
0.6504070756
0.4288658234
0.8505855606
0.6414635209
0.6476442296
0.9428320647
0.4383027420
0.6097217148
0.6434090009
0.4722476427
0.5575572497
0.8727191707
0.5703316312
0.8730200526
0.5784513086
0.4675169791
0.8251198529
0.6000905421
0.5628697171
0.5374491126
0.6262429581
0.5742093126
0.6016341396
0.5020830033
0.7395547134
0.8155959647
0.9336851751
0.6135214903
0.9706587964
0.9439363494
0.9743039187
0.5708238696
0.6410308759
0.9272032165
0.4080751862
0.5751023077
0.6133193471
0.8525413151
0.9787332715
0.4722147548
0.4026210336
0.5819757703
0.6134459510
0.9611915106
0.9768107263
0.5874603467
0.5994882442
0.9314302725
0.9706554934
0.6521752555
0.4183127586
0.8784401988
0.6345075122
0.6398529086
0.9238003535
0.6175347347