<VTKFile type="UnstructuredGrid" version="0.1">
	<UnstructuredGrid>
		<Piece NumberOfPoints="1862" NumberOfCells="3498">
			<CellData>
				<DataArray type="Int32" Name="type" NumberOfComponents="1" Format="ascii">
0
0
0
0
0
0
0
0
0
0
0
0
0
0
0
0
1
0
0
1
0
0
0
0
0
0
0
0
0
0
0
0
0
1
0
0
0
0
0
0
0
0
0
0
0
0
0
0
0
0
1
0
0
0
0
0
0
0
0
0
0
1
0
0
0
0
0
0
0
0
0
0
0
0
0
0
0
0
0
0
0
0
0
0
0
0
0
0
0
0
0
0
0
0
0
0
0
0
0
0
0
0
0
0
0
0
0
0
0
0
0
0
0
0
0
0
0
0
0
0
0
0
0
1
0
0
0
0
0
0
0
0
0
0
0
0
0
0
0
0
0
0
0
0
0
0
0
0
0
0
0
1
0
1
1
0
0
0
0
0
0
0
0
0
0
0
0
0
1
0
1
0
0
0
0
1
0
0
0
0
0
0
0
0
1
1
0
0
0
0
0
1
0
0
0
0
0
0
0
0
1
0
0
0
0
0
0
0
0
0
0
0
0
0
0
0
0
0
0
0
0
0
0
0
0
0
0
0
0
0
0
0
0
1
0
0
0
0
0
0
0
0
0
0
0
0
0
0
0
0
0
0
0
0
0
0
0
0
0
0
0
0
0
0
0
0
0
0
0
0
0
0
0
0
0
0
0
0
0
0
0
1
0
0
0
0
0
0
0
0
0
0
0
0
0
0
0
0
0
0
0
0
0
0
0
0
0
0
0
0
0
0
0
0
0
0
0
0
0
0
0
0
0
0
0
0
0
0
0
0
0
0
1
0
0
0
0
0
0
0
0
0
0
0
0
0
0
0
0
0
0
0
0
0
0
0
0
0
0
0
0
0
0
0
0
0
0
0
0
0
0
0
0
0
0
0
0
0
0
0
0
0
0
0
0
0
0
0
0
0
1
0
0
0
0
0
0
0
0
0
0
0
0
0
0
0
0
0
0
0
0
0
0
0
0
0
0
0
0
0
0
0
0
0
0
0
0
0
0
0
0
0
0
0
0
0
0
0
0
0
0
0
0
0
0
0
0
0
0
0
0
0
0
0
0
0
0
0
0
0
0
0
0
0
0
0
0
0
0
0
0
0
0
0
0
0
0
0
0
0
0
0
0
0
0
0
0
0
0
0
0
0
0
0
0
0
0
0
0
0
0
0
0
0
0
0
0
0
0
0
0
0
0
0
0
0
0
0
0
0
0
0
0
1
0
0
0
0
0
0
0
0
0
0
0
0
0
0
0
0
0
0
0
1
0
0
0
0
0
0
0
0
0
0
0
0
0
0
0
0
0
0
0
0
0
0
0
0
0
0
0
0
0
0
0
0
0
0
0
0
0
0
0
0
0
0
0
0
0
0
0
0
0
0
0
0
0
1
0
0
0
0
0
0
0
0
0
0
0
0
0
0
0
0
0
0
0
0
0
0
0
1
0
0
0
0
0
0
0
0
0
0
0
0
0
0
0
0
0
0
0
1
0
0
0
1
0
0
0
0
0
0
0
0
0
0
0
0
0
0
0
0
0
0
0
0
0
0
0
0
0
1
0
0
0
0
0
0
0
1
0
0
0
0
0
0
0
0
0
0
0
0
0
0
0
0
0
0
0
0
0
0
0
0
0
0
1
0
0
0
0
0
0
0
1
0
0
0
0
0
0
1
0
0
0
0
0
0
0
0
0
0
0
0
0
0
0
0
0
0
0
0
0
0
0
0
0
0
0
0
0
0
0
0
0
0
0
0
0
0
1
0
0
0
0
0
1
0
0
0
0
0
0
0
1
0
0
0
0
0
0
0
0
0
0
0
0
0
1
0
0
0
0
0
0
0
0
0
0
0
0
0
0
0
0
0
0
0
0
0
0
0
0
0
0
0
0
0
0
0
0
0
0
0
0
0
0
0
0
0
0
0
0
0
0
0
0
0
0
0
0
0
1
0
0
0
0
0
0
0
0
0
0
0
0
0
0
0
0
0
0
0
1
0
0
0
0
0
0
0
0
0
1
0
0
0
0
0
0
0
0
0
0
0
0
0
0
0
0
0
0
0
0
0
0
0
0
0
0
0
0
0
1
0
1
0
0
0
0
0
0
0
0
0
0
0
0
0
0
0
0
0
0
0
0
0
0
0
0
0
0
0
1
0
0
0
1
0
0
0
0
0
0
0
0
0
0
0
0
0
0
0
0
0
0
0
0
0
0
0
0
0
0
0
0
1
0
0
0
0
0
0
0
0
0
0
0
0
0
0
0
0
0
0
0
0
0
0
0
0
0
1
0
0
0
0
0
0
0
0
0
0
0
0
0
0
0
0
0
0
0
0
0
0
0
1
0
0
0
0
0
0
1
0
0
0
0
0
0
0
0
0
0
0
1
0
0
0
0
0
0
0
0
0
0
0
0
0
0
0
0
0
0
0
0
1
0
0
0
0
0
0
0
0
0
0
0
1
0
0
0
0
0
0
0
0
0
0
0
0
0
0
0
0
0
0
0
0
0
1
0
0
0
0
0
0
0
0
0
1
1
0
1
0
1
0
0
0
0
0
0
0
0
0
0
0
1
0
0
0
0
0
1
1
0
0
0
0
0
0
1
0
0
0
0
0
1
1
1
0
0
0
0
0
0
0
0
0
0
0
0
1
1
0
0
1
0
0
0
0
0
1
0
0
0
1
0
1
0
0
0
0
0
0
0
1
0
0
0
0
0
0
0
1
0
0
1
0
0
0
0
0
0
0
0
0
0
0
0
0
0
0
1
0
0
0
0
0
0
0
0
0
0
0
0
0
0
0
0
0
0
0
0
0
0
0
0
0
0
0
0
0
0
0
0
0
0
0
0
1
0
0
0
0
0
0
1
0
0
0
1
0
0
0
0
0
0
0
0
0
0
0
1
0
0
0
0
0
0
0
0
0
0
0
0
0
0
0
0
0
0
0
0
0
0
0
0
0
0
0
0
0
0
0
0
0
0
0
0
0
0
0
0
1
1
0
0
0
0
0
0
0
0
0
0
0
0
0
1
0
0
0
0
0
0
0
0
0
0
0
0
0
0
0
0
0
0
0
0
0
0
0
0
0
0
0
0
0
0
0
0
0
0
0
0
0
0
0
0
0
0
0
0
0
0
0
0
0
0
0
0
0
0
0
0
0
0
0
0
0
0
0
0
0
0
0
0
0
0
0
0
1
1
0
0
0
0
0
0
0
0
1
0
0
0
0
0
0
0
0
0
0
0
0
0
0
0
0
0
0
0
0
0
0
0
1
0
0
0
0
0
0
0
0
0
0
0
0
0
0
0
0
1
0
0
0
0
0
0
0
0
0
0
0
0
0
0
0
0
0
0
0
0
0
0
0
0
0
0
0
0
0
0
0
0
0
0
0
0
0
0
0
0
0
0
0
0
0
0
0
0
0
0
0
0
0
0
0
0
0
0
0
0
0
0
0
0
0
0
0
0
0
0
0
0
0
0
0
0
0
0
0
0
0
0
0
0
0
0
0
0
0
0
1
1
0
0
0
0
0
1
0
0
0
0
0
0
0
0
0
0
0
0
1
0
0
0
0
0
0
0
0
0
0
0
0
0
0
0
0
0
0
0
0
0
0
0
0
0
0
0
0
0
0
0
0
0
0
0
0
0
0
0
0
0
0
0
0
0
0
0
0
0
0
0
0
0
1
0
1
0
0
0
0
0
0
0
0
0
0
0
0
0
0
0
0
0
0
1
0
0
0
0
0
0
0
0
0
0
0
0
0
0
0
0
0
0
0
0
0
0
0
0
0
0
0
0
0
0
0
0
0
0
0
0
0
0
0
0
0
0
0
0
0
0
0
0
0
0
0
0
0
0
0
0
0
0
0
0
0
0
0
0
0
0
0
0
0
0
1
0
0
0
0
0
0
0
0
0
0
1
0
0
0
0
0
0
0
0
0
0
0
0
0
0
0
0
0
0
0
0
0
0
0
0
0
0
0
0
0
0
0
0
0
0
0
0
0
1
0
0
0
0
0
0
0
0
0
0
0
0
0
0
0
0
0
0
0
0
0
0
0
0
0
0
0
0
0
0
0
0
0
0
0
0
0
0
0
0
0
0
0
0
0
0
0
0
0
0
0
0
0
0
0
0
0
0
0
0
0
0
0
0
0
0
0
0
0
0
0
0
0
0
0
0
0
0
0
0
0
1
0
0
0
0
0
0
0
0
0
0
0
0
0
0
0
0
0
0
0
0
0
0
0
0
0
0
0
0
0
0
0
0
0
0
0
0
0
0
0
0
0
0
0
0
0
0
0
0
0
0
0
0
0
0
0
0
0
0
0
0
0
0
0
0
0
0
0
0
0
0
0
0
0
0
0
0
0
0
0
0
0
0
0
0
0
0
0
0
0
0
0
0
0
0
0
0
0
0
0
0
0
0
0
0
0
0
0
0
0
0
0
0
0
0
0
0
0
0
0
0
0
0
0
1
0
0
0
0
0
0
0
0
0
0
0
0
0
0
0
0
0
0
0
0
0
0
0
0
0
0
0
0
0
0
0
0
0
0
0
0
0
0
0
0
0
0
0
0
0
0
0
0
0
0
0
0
0
0
0
0
0
0
0
0
0
0
0
0
0
0
0
0
0
0
0
0
0
0
0
0
0
0
0
0
0
1
0
0
0
0
0
0
0
1
0
0
0
0
0
0
0
0
0
0
0
0
0
0
0
0
0
0
0
0
0
0
0
0
0
0
0
0
0
0
0
0
0
0
0
0
0
1
0
0
0
0
0
0
0
0
0
0
0
0
0
0
0
0
0
0
0
0
0
1
0
0
0
0
0
0
0
0
0
0
0
0
1
1
0
0
0
0
0
0
0
0
0
0
0
0
0
0
0
1
1
0
1
0
0
0
0
0
0
0
0
0
1
0
0
0
0
0
0
1
0
0
0
0
0
0
0
0
0
0
1
0
0
0
0
1
0
1
0
0
0
0
0
0
0
1
0
0
0
1
0
0
0
1
0
1
1
0
0
1
1
0
0
0
1
0
0
0
1
0
0
0
0
0
0
0
0
0
1
0
0
0
0
0
0
1
0
0
0
0
0
0
0
0
0
0
0
0
0
0
0
0
0
0
0
0
0
0
0
0
0
0
0
1
0
0
1
0
0
0
0
0
0
0
0
0
0
0
0
0
0
0
0
0
0
1
0
0
1
0
0
0
0
0
0
0
0
0
0
0
1
0
0
1
0
0
0
0
0
0
0
0
0
0
0
1
1
0
0
0
0
0
0
0
0
0
0
0
0
1
0
0
0
0
0
0
0
0
0
0
0
0
0
0
0
0
0
1
0
0
0
0
0
0
0
0
0
0
0
0
0
0
0
0
0
1
0
0
0
0
0
0
0
0
0
0
0
0
0
0
0
0
0
0
0
0
0
0
0
0
0
0
0
0
0
0
0
0
0
0
0
0
0
0
0
0
1
0
0
0
0
0
0
0
0
0
0
0
0
0
0
0
0
0
0
0
0
0
0
0
0
0
0
0
0
0
0
0
0
0
0
0
0
0
0
0
0
0
0
0
0
0
1
0
0
0
0
0
0
0
0
0
0
0
0
0
0
0
0
0
0
0
0
0
0
0
0
0
0
0
0
0
0
0
0
0
0
0
0
0
0
0
0
0
0
0
0
0
0
0
1
0
0
0
0
0
0
0
0
0
0
1
0
0
0
0
0
0
0
0
0
0
0
0
0
0
0
1
0
0
1
0
0
0
0
0
0
0
0
0
0
0
0
0
0
0
0
0
0
0
0
0
0
0
1
0
0
0
0
0
0
0
0
0
0
0
0
0
0
0
0
0
0
0
0
0
0
0
0
0
0
0
0
0
0
0
0
0
0
0
1
0
0
0
0
0
0
0
0
0
0
0
0
0
0
0
0
0
0
0
0
0
0
0
0
0
0
0
0
0
0
0
0
0
0
0
0
0
0
0
0
0
0
0
0
0
0
0
0
0
0
0
0
0
0
0
0
0
0
0
0
0
0
0
0
0
0
0
0
0
0
0
0
0
0
0
0
1
0
0
0
0
0
0
0
0
0
0
0
0
0
0
0
0
0
0
0
0
0
0
0
0
0
0
0
0
0
0
0
0
0
0
0
0
0
0
0
1
0
0
0
0
0
0
0
0
0
0
0
0
1
1
0
0
0
0
0
0
0
0
0
0
0
0
0
0
0
0
0
0
0
0
0
0
0
0
0
0
0
0
0
0
0
0
0
0
0
0
0
0
0
0
0
0
0
0
0
0
0
0
0
0
0
0
0
0
0
0
0
0
0
0
0
0
0
0
0
0
0
0
0
0
0
0
0
0
0
0
0
0
0
0
0
0
0
0
0
0
0
0
0
0
0
0
0
0
0
0
0
0
0
0
0
1
0
1
0
0
0
0
0
0
0
1
1
1
1
0
0
0
0
0
0
0
0
0
0
0
0
0
0
0
0
0
0
0
0
0
0
0
0
0
0
0
0
1
1
0
0
0
0
0
0
0
0
0
0
0
0
0
0
0
0
0
0
1
0
0
0
0
0
0
0
1
1
0
1
1
0
0
1
0
0
0
0
0
0
0
1
0
1
0
0
0
0
0
0
0
0
0
0
0
0
0
0
0
0
0
0
0
0
0
0
0
0
0
0
0
1
1
0
0
0
1
1
0
0
0
0
1
0
0
1
0
1
0
0
0
0
0
1
0
0
0
1
0
0
0
0
0
0
0
0
0
0
0
0
0
0
0
0
0
0
0
0
0
0
0
0
0
0
0
1
0
0
0
0
0
0
1
0
0
0
0
0
0
0
0
0
0
0
0
0
0
0
0
0
0
0
0
0
0
0
0
0
0
0
0
0
1
0
1
0
0
0
0
0
0
0
1
0
0
0
0
0
0
0
0
0
0
0
1
0
0
0
0
0
0
0
0
0
1
0
0
0
0
0
0
0
1
0
0
0
0
0
0
0
1
0
0
0
0
0
0
0
0
0
0
0
0
0
0
0
0
0
0
0
1
0
1
0
0
0
0
0
1
0
0
0
0
0
0
0
0
0
0
0
0
0
0
0
0
0
0
0
0
0
0
0
0
0
1
0
1
0
0
0
0
0
0
0
0
0
1
0
0
0
0
0
1
0
0
0
0
0
0
0
0
0
0
0
0
0
0
0
1
0
0
0
0
0
0
0
0
1
0
0
0
0
0
0
0
0
0
0
0
0
0
0
0
0
0
0
0
0
0
0
0
0
0
0
0
0
0
0
1
0
0
0
0
0
0
0
0
0
0
0
0
0
0
0
0
1
0
0
0
0
0
0
0
0
1
0
0
0
0
0
0
0
0
0
1
0
0
0
0
0
1
0
0
0
0
0
0
0
0
0
0
0
0
0
0
0
0
0
0
0
1
0
0
0
0
0
0
1
0
0
0
0
0
0
0
0
1
0
0
0
0
0
0
0
0
0
0
0
0
0
0
1
0
0
1
0
0
0
1
0
0
0
0
0
0
0
0
0
0
0
0
0
0
0
0
1
0
0
0
0
0
0
0
0
0
0
1
0
1
0
0
0
0
0
0
1
0
0
0
0
0
0
0
0
0
0
0
0
0
0
0
0
0
0
0
0
0
0
0
0
0
0
0
1
1
0
0
0
0
0
0
1
0
0
0
0
0
0
0
0
0
0
0
0
0
1
0
0
0
0
0
0
0
1
0
0
0
0
0
0
0
0
0
0
0
0
0
0
0
0
0
0
0
0
0
0
0
0
0
0
0
1
0
0
0
0
0
0
0
0
0
0
1
0
0
1
0
0
0
0
0
0
0
0
0
0
0
0
0
0
0
0
0
0
0
0
0
0
0
0
0
0
0
0
0
1
0
0
0
0
0
0
0
1
0
0
0
0
0
0
0
1
0
0
0
0
1
0
0
0
0
0
0
0
0
0
0
0
1
0
1
0
0
0
1
0
				</DataArray>
				<DataArray type="Float64" Name="h" NumberOfComponents="1" Format="ascii">
0.7373876073
0.7373228922
0.7777900754
0.7692598979
0.7729583365
0.7741356439
0.7702527066
0.7540011518
0.7648597490
0.7441768192
0.7653979272
0.7762349724
0.7130553541
0.7615939780
0.7455838147
0.6581288968
0.7747542110
0.7315378580
0.7174728018
0.7674185981
0.7858434066
0.6635268548
0.7006193036
0.7779497992
0.7713973820
0.6500352317
0.6207022640
0.6504731803
0.7321609308
0.7574942774
0.7643947351
0.7268646738
0.6368683305
0.7818170305
0.7923295532
0.7582302197
0.7932013595
0.6486175719
0.6392837530
0.7836570068
0.7531086805
0.6889423662
0.6434909905
0.6784261755
0.7733743937
0.6596438946
0.6733438744
0.7918188927
0.6774690839
0.6769292172
0.7889269563
0.7106261191
0.7064307582
0.6784243771
0.7409689306
0.6059714341
0.6858227564
0.7926917700
0.7544464118
0.7113494260
0.7933563197
0.8064789946
0.6757079697
0.7382083410
0.6543681574
0.6520124691
0.6755806147
0.6743330768
0.7905587583
0.8034935616
0.7719405364
0.7646116823
0.6129739155
0.6777944027
0.7084325201
0.6264101364
0.7829323685
0.7535233761
0.7966169190
0.6317938110
0.7835824768
0.6566203252
0.6784579093
0.6720904990
0.6166424318
0.6414268017
0.7655115574
0.6681335443
0.7042476641
0.6803305786
0.7035865867
0.6333622869
0.7552482716
0.6813737261
0.6531111678
0.6470111338
0.6632389318
0.6250432064
0.6377593981
0.7451219021
0.6789825505
0.7956739099
0.6611558870
0.8021756986
0.7268259916
0.6724758832
0.6539562435
0.6774540845
0.7286016776
0.6580891392
0.6809957134
0.6804409995
0.7133596935
0.6811253857
0.6676809068
0.6787248103
0.6662233196
0.7429262986
0.6781101566
0.6734897116
0.7363851481
0.6664187137
0.6401851981
0.7476708535
0.6846695511
0.6770998384
0.6731434839
0.7418072005
0.7045826507
0.6754213789
0.6938262482
0.6579709464
0.6795709023
0.7003122736
0.7501761919
0.6842150775
0.6422575078
0.6749144361
0.7806376827
0.6081929409
0.7319472148
0.7508975598
0.6893816442
0.5952671125
0.6470672796
0.7155890112
0.6230063352
0.6550093228
0.7433497248
0.5950083834
0.6439722425
0.6611721133
0.6551674482
0.5318882369
0.7951036955
0.6651736998
0.5719560031
0.7220754486
0.5823951332
0.7308547861
0.5899883695
0.6495664506
0.6194403621
0.7279772356
0.7318085291
0.6698712537
0.5892874244
0.6034659823
0.7420883658
0.6596306964
0.5886865915
0.7396590906
0.5429878273
0.7098272070
0.5813012173
0.5046820671
0.5818878198
0.6631341403
0.5126281126
0.7193059825
0.6685205324
0.5858615008
0.7238579846
0.6479275317
0.7405224690
0.7354997177
0.5908604586
0.5267946745
0.7398721852
0.7395212789
0.5956842530
0.5143357630
0.7293617950
0.5967233875
0.5069862872
0.6694709472
0.6883063663
0.6098047116
0.6070310811
0.5509135579
0.7401165230
0.6549348102
0.7374705953
0.5335558795
0.6278921090
0.6811251778
0.5833539181
0.6212407171
0.6214207785
0.5658279771
0.5825382458
0.7338572012
0.6859051320
0.6785380023
0.5999969948
0.5977169243
0.5720214057
0.6649099449
0.5722755985
0.7112962765
0.6396048512
0.6851654754
0.5659432547
0.6853517539
0.6631786076
0.6375561680
0.6820314485
0.6794488286
0.6484174617
0.6838083465
0.5760464299
0.6857751775
0.6730896668
0.5712910588
0.6714372129
0.6835174138
0.5838263634
0.5514498293
0.7100441255
0.5404748462
0.5676865266
0.5801195655
0.6405873010
0.5567168015
0.5989735237
0.5674361761
0.6628818504
0.5691474648
0.5637593859
0.6206755211
0.5433757156
0.5526265119
0.6436169796
0.6033551891
0.5887392736
0.6386470953
0.5591383126
0.5805970796
0.6785272391
0.6864135492
0.5430775469
0.6663281397
0.6844057981
0.6906550525
0.6689349617
0.6794238131
0.6885999558
0.6383226562
0.6083076898
0.6905087239
0.6885105104
0.5605936309
0.6853518644
0.6819502591
0.6851738946
0.6495758819
0.6774993475
0.6885435999
0.6910910465
0.6565810171
0.6839496482
0.6437834597
0.6674887593
0.6906683859
0.6893883980
0.6863339480
0.6768547900
0.5227433147
0.6202748781
0.5990805406
0.5382262468
0.5724356207
0.5476325941
0.5626200348
0.5129119782
0.5539558285
0.5317964763
0.5339452362
0.5807656597
0.6386409623
0.5990025237
0.5486431951
0.5518807005
0.5824053296
0.5993739141
0.5152281638
0.5320814411
0.5322743382
0.5998741914
0.6701374459
0.6871174757
0.6900271981
0.6871228176
0.6396408730
0.6965380257
0.6916468468
0.5191879132
0.6909399785
0.7335298623
0.5383699157
0.6962264593
0.6728730653
0.6962141448
0.6954085838
0.6824630955
0.6816361272
0.6941823129
0.7003108699
0.6902553321
0.6916726050
0.6903055821
0.7148069513
0.7388603609
0.6520860450
0.6967166248
0.6591890681
0.6956178562
0.5095954910
0.8660161924
0.4835641668
0.5462190547
0.5050185272
0.5815322720
0.5652834313
0.5194838840
0.4927296262
0.5330879002
0.5646343016
0.7675429673
0.6974232145
0.5829670142
0.7160818463
0.5200393553
0.5640664679
0.8625852588
0.4844794458
0.7133636610
0.5147660952
0.5038247774
0.7214528495
0.7188005678
0.9069954742
0.5990010626
0.5358055560
0.5969622207
0.5051741906
0.6683409689
0.6908770458
0.7126138012
0.5661452318
0.7217605958
0.7473621476
0.5493014655
0.7868821440
0.6972704228
0.7021944136
0.7168531205
0.4643154166
0.7067904636
0.6739447328
0.6433506662
0.6970111385
0.7605524814
0.4939167327
0.7022179121
0.5152632936
0.6778081918
0.6929711837
0.6956057237
0.4133838667
0.8099648427
0.6553641288
0.6960197561
0.6261747791
0.7487140115
0.7025652430
0.4437557219
0.4116893841
0.4089937221
0.5147054487
0.6872915302
0.6979060196
0.4565385404
0.6973317811
0.5783956348
0.7404333000
0.7025964716
0.6632762803
0.6872394498
0.4246870513
0.7001920454
0.6847635845
0.7096705418
0.7044834225
0.4788515217
0.8250069966
0.7184991636
0.4784318513
0.7161297829
0.6900571497
0.6780794369
0.6497034291
0.5050892547
0.7320097160
0.8977528055
0.7088060828
0.8326308140
0.5507396600
0.7270890987
0.5610624976
0.7064965240
0.9157813966
0.7223344986
0.7960974937
0.7190121619
0.7153807281
0.7805052190
0.7109369098
0.7867310875
0.6838484828
0.7127364145
0.7337130986
0.4905163811
0.7336691212
0.7017104316
0.4735562574
0.7000479151
0.7265896398
0.7097029210
0.7355049847
0.7282074125
0.8583274144
0.5661467275
0.6765027503
0.5257269509
0.6497030094
0.9378846118
0.8267914072
0.7251797704
0.9169842815
0.5355427412
0.5976639677
0.4479655998
0.8176378393
0.4954406262
0.7033234300
0.7058888672
0.6832211950
0.5582997866
0.4760237512
0.7471037626
0.4572580675
0.7036539455
0.5220648215
0.6502051463
0.6992462190
0.9525772304
0.3983877393
0.5249195421
0.4517795839
0.4364028123
0.6033621674
0.4596458151
0.7891491734
0.8117323690
0.8770864745
0.7071800304
0.4223152313
0.7022799121
0.4179595506
0.7208779544
0.6689845843
0.9611987238
0.5098086430
0.4437594011
0.4101101004
0.4456943106
0.9521306123
0.7033290551
0.4233151835
0.7424621525
0.7514688174
0.3976001538
0.4089970728
0.5147063135
0.4851618371
0.6934595834
0.5394800818
0.6381862434
0.7326317965
0.4223117601
0.5632355097
0.7385487366
0.4572571787
0.6869737479
0.5249200091
0.7336003557
0.7004113573
0.5124669312
0.4382898306
0.5632400993
0.7198127724
0.7175580327
0.9025889862
0.4310872649
0.7437325972
0.4136539572
0.7319715326
0.6614969559
0.5561800395
0.7287291581
0.4479620421
0.7275461138
0.4626482952
0.4760178913
0.4269416040
0.5098063962
0.4456925214
0.5394828828
0.6614962712
0.6033690520
0.3603647053
0.4063338351
0.5265512472
0.3711852046
0.4267358941
0.4231808552
0.5220674778
0.3572927203
0.4233231655
0.9330214154
0.3883176431
0.4447125248
0.6298453565
0.4977943492
0.6657321296
0.6004063948
0.4315909456
0.7638567442
0.8899688629
0.5096918742
0.4225348898
0.8267961390
0.4596405195
0.5542463742
0.7109242744
0.4851621787
0.7058899577
0.7388419550
0.8582908202
0.4674740959
0.7302934331
0.7403043631
0.7360066954
0.6900721917
0.4882892956
0.6589708598
0.7071524350
0.7385556278
0.5142859225
0.4116249674
0.7096798987
0.7424687928
0.3931982534
0.7225119588
0.4360715698
0.7867648722
0.7096468520
0.7000608242
0.4526245449
0.8325733923
0.3489957383
0.3998951596
0.5390319106
0.4476586482
0.6765176460
0.5659728056
0.5028251031
0.9600107055
0.4179284586
0.6232984733
0.4676822140
0.9357706475
0.4089742765
0.7087934313
0.4034422576
0.3337350857
0.8330075542
0.7185200476
0.4026682409
0.3579510773
0.4546125551
0.7675116041
0.4386474697
0.7071527842
0.4193474794
0.7403251668
0.4626470427
0.4674761533
0.5561823610
0.4310863647
0.9331363848
0.6893404035
0.4724337477
0.5124682453
0.4319837312
0.5767220741
0.8585978667
0.4977945278
0.4828126984
0.3337355964
0.5521593571
0.4401176164
0.6004091565
0.4382910956
0.5096943655
0.4447112535
0.7490366856
0.9425143523
0.7448986594
0.7334301402
0.5265544826
0.3601941718
0.3185058266
0.5261331927
0.9576469568
0.7434293221
0.6298449279
0.3820672185
0.9117769045
0.7208251004
0.4216732644
0.4756802756
0.4232517768
0.8039532444
0.4779511713
0.5770662348
0.4267359317
0.7429647139
0.4110106552
0.4914602108
0.4402575690
0.7437794607
0.7799781681
0.9739760960
0.7411119649
0.6031334461
0.4430587215
0.4584962330
0.4117145296
0.9744904024
0.9770644942
0.4269428898
0.3975581093
0.3309208425
0.5208705562
0.7502749525
0.5771407409
0.5290670759
0.9898025205
0.9814081639
0.3708450647
0.3722275903
0.7697014714
0.3929603730
0.4215323627
0.6592079151
0.8698804955
0.9884791683
0.9563992193
0.4083227158
0.4155795807
0.6669736649
0.5441895235
0.5252130638
0.8366696366
0.9354007860
0.7471741562
0.7679336500
0.7833872946
0.9868618624
0.9938198373
0.5541882816
0.9425102562
0.8230840571
0.4026685528
0.9958666982
0.3883194655
0.9808929803
0.4191413866
0.4143569129
0.9953647032
0.4386457193
0.9923491042
0.9845061625
0.4225380058
0.9781592312
0.4121122655
0.3684027901
0.9648446152
0.9712199597
0.4341275730
0.7452587512
0.7591943586
0.7591331384
0.7451654528
0.7720310378
0.7762381631
0.7654151389
0.7604655008
0.7640116144
0.7741463633
0.7729406072
0.7639666799
0.7648287572
0.7456397855
0.7702766935
0.7520806766
0.7604358945
0.7720193059
0.7303434070
0.7315648023
0.7692488894
0.7777825801
0.7175657343
0.7575073055
0.6865041094
0.7783965791
0.7539650951
0.6500385537
0.7714023451
0.7441583407
0.6902024263
0.7129953199
0.7818480742
0.6325990465
0.6954353068
0.7520604034
0.7644018597
0.7302994577
0.7818114459
0.6368977419
0.7269789869
0.6155038482
0.7836592933
0.6292121558
0.7747593065
0.6580965274
0.6435378996
0.6393245723
0.7783988083
0.6864903849
0.7531807783
0.7615824278
0.7674170699
0.7818462556
0.7005091076
0.7801958715
0.6634952441
0.7881604968
0.6901581871
0.7858446882
0.6953541125
0.6674753247
0.6560051089
0.7918373978
0.6325770272
0.7734011881
0.7889283494
0.6734399939
0.6504053635
0.7779405957
0.7320446379
0.6859331164
0.6255493564
0.6206651959
0.7885315330
0.7114305542
0.6291549732
0.7153828169
0.7990943468
0.6154756218
0.7065446514
0.7801309341
0.6775239643
0.6762346357
0.6674218096
0.7881632732
0.7790254146
0.6559717274
0.7581627959
0.6544524883
0.6485643337
0.7642620725
0.7923189313
0.6757144649
0.6743181042
0.6720345132
0.7932021089
0.7383162936
0.7152432402
0.7740974394
0.7561972263
0.6783365912
0.6778679945
0.6913142647
0.7646889819
0.6130245490
0.7974532804
0.6121397320
0.6360401272
0.7885278340
0.8023306032
0.7990976338
0.6888267166
0.7830004529
0.7720344435
0.6908353103
0.7085694956
0.6254874853
0.6295689500
0.7906105077
0.7955729256
0.7114131188
0.8034957121
0.7790006467
0.7641587661
0.6445096342
0.6719621631
0.6738250614
0.7390617186
0.6767628447
0.6774813580
0.7104979573
0.6762272597
0.6595824750
0.6566306034
0.6720621666
0.6739895966
0.6775519592
0.6769585673
0.7933125053
0.8064796543
0.6295043404
0.7818362540
0.6907262671
0.7543207489
0.7356712487
0.6911945317
0.6169181360
0.6038175613
0.7740173395
0.7955727472
0.7146092191
0.7408524633
0.7770091481
0.7974215608
0.8023219719
0.6059227922
0.6660890915
0.7303856889
0.6120886822
0.6783497476
0.7560750982
0.7112106825
0.6334039837
0.7926540809
0.6359855238
0.7553623171
0.6738338738
0.8021732167
0.6378126581
0.6739111813
0.6080964197
0.7389076919
0.7956868186
0.6756637829
0.7398528507
0.6703218589
0.6519780610
0.6789742015
0.6756150017
0.8009128639
0.6251040879
0.8039577609
0.6470388531
0.6926993783
0.6768055617
0.7452196725
0.6724530810
0.6444807755
0.6762822490
0.6660574753
0.7287512768
0.6804183086
0.7817755743
0.7302368324
0.7134687125
0.7144520532
0.6263785175
0.6815239584
0.7355149520
0.7533944635
0.6037567534
0.7186930582
0.6168810390
0.6809622353
0.6580913945
0.7769076513
0.7397386297
0.6762917730
0.6674222436
0.8039533532
0.6414052779
0.6664039633
0.6886769027
0.8009176213
0.7090722790
0.6925798797
0.6703352739
0.6165956010
0.6317522315
0.7654497609
0.6784666896
0.7835332254
0.6662257349
0.7965956240
0.6757010193
0.7363874036
0.6681562870
0.6080435973
0.7186075007
0.6579761219
0.6804971485
0.6869343367
0.6771015765
0.6981121778
0.6887835316
0.7041239926
0.6531131288
0.6814067657
0.6749364298
0.6803520158
0.7034991013
0.6763308216
0.8034402186
0.6847310828
0.6731691954
0.6815655171
0.6754229529
0.6611700289
0.6755350041
0.6805700330
0.6673921087
0.7090608349
0.6885805008
0.6776369979
0.7501810914
0.6842560649
0.6796224261
0.7268209232
0.6632559800
0.6465388037
0.6788195880
0.7508991201
0.6779106452
0.6869406287
0.6749260189
0.6810807016
0.6774655461
0.6652521191
0.8034474429
0.6887216594
0.6676860056
0.7433495602
0.6805326238
0.6894005328
0.7449693917
0.6787261089
0.6980137063
0.7156556530
0.6763141038
0.6534443613
0.7476308441
0.6304092984
0.6779369373
0.6315941150
0.6755284572
0.6776144443
0.6677526049
0.6958425256
0.6763895501
0.7668673099
0.6734689839
0.6806039114
0.6611720797
0.7429174228
0.7365511701
0.6780854543
0.7541860559
0.6439851655
0.6551084704
0.7951095510
0.6652328412
0.7449688212
0.6034887414
0.7318058244
0.6778723566
0.6143974586
0.7476296496
0.7383362313
0.6356189403
0.6762212305
0.6788456351
0.7476698817
0.7045782276
0.5900158838
0.7385238828
0.6401632687
0.6937859133
0.7574652471
0.6194635413
0.7329259042
0.6494390515
0.7418065960
0.5822914535
0.7668176334
0.6422470098
0.7003228311
0.6428609604
0.6727693116
0.6763860780
0.6734072564
0.6749584669
0.5429662760
0.7603321727
0.6894100185
0.7806214569
0.7541803334
0.6779558382
0.6677508202
0.6316232344
0.6303871262
0.7365046802
0.6595403845
0.7480017004
0.6958590752
0.5886752005
0.7098244158
0.5951246303
0.7238634423
0.6692727076
0.7385243167
0.7383364785
0.6737000494
0.6115144688
0.5476885465
0.5952313988
0.6551214189
0.6229776301
0.7193061757
0.6357683010
0.7574610671
0.6762275040
0.7149443581
0.7319471719
0.6684879588
0.7328970197
0.5819240286
0.7770036728
0.6081581067
0.6145062175
0.7323294906
0.7398733847
0.6652322073
0.5719928069
0.6894090827
0.6658157169
0.6429442611
0.7537123689
0.7603306566
0.6727840726
0.7405229074
0.6734404022
0.5318954478
0.7220765893
0.7479916199
0.5909049191
0.6604157986
0.5069872272
0.5892424835
0.7323274680
0.6737065477
0.6694065239
0.7149392413
0.5477367901
0.7769914795
0.6650452085
0.7352018815
0.6115999761
0.6692753690
0.7373063543
0.5143338976
0.7358273523
0.7279772003
0.6699026375
0.5967557540
0.6465258579
0.7308501551
0.6549550824
0.5111838865
0.7396578968
0.7374756836
0.5812549971
0.5335289576
0.6658122941
0.7420872902
0.7401220994
0.7537113690
0.6070510260
0.5199269307
0.5126324246
0.7074458516
0.7351981687
0.7373052196
0.7338635003
0.6466603452
0.6651216616
0.7015219538
0.6747899085
0.5858230021
0.7358167801
0.5046810544
0.6604048459
0.7301018906
0.7342523404
0.6632547612
0.6859114649
0.6214353988
0.5956625394
0.5759853161
0.5111809038
0.7395150171
0.5199264702
0.5628469017
0.5298180644
0.6479082026
0.7354956189
0.5268146716
0.6396216188
0.6628886658
0.5674606756
0.6677187759
0.5990018122
0.6097966105
0.7342444613
0.6171436947
0.7215673527
0.5567164678
0.6443998220
0.7074446761
0.5838295140
0.7293542106
0.7204073878
0.6748219592
0.6883053966
0.6951275019
0.5806245146
0.6212532295
0.6033527978
0.5591636104
0.6436285434
0.5691601990
0.7300918598
0.7100568274
0.7015187781
0.6187216606
0.6271335522
0.6278902320
0.5629158272
0.6863017662
0.5606202565
0.5298077651
0.6851575267
0.6566060121
0.6673772626
0.6839225678
0.6792217155
0.6768699097
0.6383314774
0.6853181487
0.5509042525
0.6863875581
0.6689636187
0.6083697089
0.6824765989
0.6793685446
0.6819519593
0.5825273768
0.5382491464
0.5997341769
0.7112878878
0.5318633793
0.5724308804
0.6443866165
0.6171392419
0.6677084049
0.6985289149
0.6136383594
0.5626453385
0.6202808146
0.7215580822
0.5658104266
0.6212150008
0.5833233670
0.6811191686
0.5722546001
0.5486679131
0.5998876130
0.7203956718
0.5322661908
0.5518825054
0.6649053390
0.5977089185
0.5993600152
0.5800363737
0.6589537216
0.5719915307
0.6212317271
0.5999661185
0.6951147902
0.6858047834
0.5383781830
0.6265829108
0.6592015218
0.6816674513
0.6902709543
0.6730691178
0.6824969568
0.6715367792
0.7003107378
0.6484085097
0.5712521393
0.6891017858
0.6916611561
0.6902702442
0.5659204437
0.6188230078
0.6838355602
0.6835198361
0.6853746355
0.6396284534
0.6729014874
0.6871430616
0.6916498500
0.6631543153
0.6820497087
0.6792487941
0.6872450174
0.6271493588
0.6376195847
0.6954066884
0.6909134483
0.6912426293
0.6851970879
0.6794383039
0.5096137373
0.5633998258
0.6405817913
0.6985204559
0.5815361253
0.5514228838
0.5676830234
0.6141824336
0.5331079582
0.6136494987
0.5800920092
0.5050257396
0.5652726930
0.5404376521
0.5997134330
0.5200603485
0.5640765224
0.6589439885
0.6180074261
0.5637312254
0.5526191274
0.5969409171
0.5478515920
0.5887384736
0.5800147265
0.5038394216
0.5358035772
0.5433605478
0.6206652864
0.6632621652
0.6885257457
0.6872614382
0.6436657898
0.6495822187
0.6978716106
0.6911011469
0.5152659161
0.6894186692
0.6912692974
0.7018540162
0.7405468841
0.6274540227
0.5430573895
0.6960529592
0.6774716849
0.6973456487
0.6906835397
0.6778121099
0.6843789478
0.6930031179
0.6886357361
0.6266124585
0.7030504492
0.6906521375
0.6905305682
0.6885397745
0.7168684624
0.7606933793
0.6433216504
0.6972980612
0.6663124618
0.6970029374
0.6891182087
0.8249763659
0.7064843798
0.6186397630
0.7161431329
0.5227205358
0.5633828412
0.8688186295
0.8086557252
0.4784353753
0.7036526728
0.5610515472
0.5128956528
0.7206217507
0.7319970715
0.8940258097
0.5990753536
0.5539582808
0.6142096385
0.5051029077
0.4788624034
0.5476113248
0.6847538819
0.6745361243
0.7153806123
0.5507411333
0.7180768951
0.7287649170
0.5343320331
0.7764667635
0.6982355838
0.5976492237
0.7147189773
0.5339221308
0.5807552954
0.8859568394
0.8594770095
0.4735628784
0.7125868130
0.5257234005
0.5152134734
0.7225611183
0.7192040456
0.9025420334
0.6180024047
0.5320785677
0.5824164770
0.5203753915
0.4905302169
0.5478353669
0.6674866438
0.6926210787
0.7124093666
0.5811694434
0.7203125057
0.7552765723
0.5355487392
0.4249950745
0.7892709381
0.6316917649
0.6967044531
0.5709081655
0.7202752036
0.7023094131
0.7147598816
0.4517759936
0.4425879212
0.4039192671
0.7071502577
0.4179564817
0.4096957269
0.6689605124
0.7030916974
0.6521037742
0.5096199947
0.6956398153
0.6208789718
0.7386727174
0.4954421130
0.7033557539
0.5191802799
0.6824493143
0.6941553026
0.3925668711
0.6934577820
0.3975972981
0.8177666268
0.6501789376
0.6962042656
0.6232994404
0.7470971934
0.7033568535
0.7018755503
0.4670649510
0.4555987507
0.4083335446
0.7194412317
0.4001299916
0.4733791818
0.6832059491
0.6965752130
0.6274857465
0.4179255399
0.6962173395
0.5582998804
0.7334224366
0.7036605568
0.6701414457
0.6900007785
0.3983845971
0.6992629064
0.6849391463
0.7489452051
0.7084865439
0.7457629704
0.7004091065
0.7036624384
0.7198050801
0.7279493821
0.4927137789
0.8273675404
0.7312301406
0.7199568771
0.8273539282
0.6854499815
0.4835553908
0.7149477528
0.6926045406
0.6745382619
0.7072004150
0.6459673422
0.7140959162
0.5194692444
0.7363485458
0.8940366717
0.7083554605
0.7638501248
0.7149580841
0.7287219935
0.8300854032
0.5646311567
0.6609503785
0.7287659134
0.5462269305
0.6683449979
0.6780788040
0.9329903898
0.8899607350
0.7072076379
0.7275360555
0.9202804376
0.7206192396
0.8086758465
0.8663915050
0.5343209503
0.6186686089
0.7180855418
0.7144253601
0.8977487383
0.6974358782
0.7961708297
0.7104436335
0.7270923163
0.7897618380
0.6806081615
0.6908841021
0.7090115732
0.7301332037
0.5051575736
0.8688061033
0.7344443239
0.7412011730
0.7046641522
0.4844667074
0.7187901618
0.7014873739
0.6537719739
0.6537726922
0.7228579676
0.5203647750
0.7675777287
0.8626178102
0.7086307980
0.7388301334
0.7261929863
0.8519105175
0.5811687279
0.6791517028
0.7190019551
0.7214497290
0.5147669854
0.6459685958
0.9330850552
0.8398849478
0.7126223511
0.7230608274
0.9237900866
0.7203161593
0.7553020749
0.9153174706
0.5492946817
0.5829875453
0.7125971302
0.7160718086
0.4609653079
0.8098358806
0.7675013667
0.9357590608
0.7195001275
0.4939123828
0.4364062802
0.7025440035
0.4001329592
0.7302902791
0.7062979094
0.6872922767
0.5783949558
0.9599871871
0.5077616393
0.4425916217
0.4913937786
0.7486649823
0.4026880184
0.4558237741
0.9117703497
0.7026103088
0.4199024694
0.7376327570
0.7963086729
0.4249986912
0.4116930621
0.5708222700
0.5708217799
0.5070062452
0.6553850801
0.7001692917
0.9471541350
0.4246904519
0.4789476329
0.5370274463
0.4643189899
0.6589618820
0.7201136388
0.4306678631
0.4181048016
0.5895078713
0.4318344930
0.7389992796
0.4749126075
0.7867187970
0.8329997038
0.8910700144
0.7068363994
0.4325409388
0.7021693220
0.4083369004
0.7177800362
0.6739556565
0.4789490597
0.9576146026
0.5228995358
0.4556026066
0.4934135536
0.7203225313
0.3998924606
0.4530903518
0.9521612712
0.7022083744
0.4306716418
0.7387170048
0.7586032505
0.4133870991
0.4039224808
0.4733812740
0.4076087096
0.4743902863
0.6317115409
0.6955925766
0.9505199683
0.3925694887
0.5515756416
0.4670688683
0.4169154874
0.6273269689
0.7293076465
0.4487144879
0.4198988496
0.5477925330
0.7348640970
0.5308226956
0.5077561721
0.4558203571
0.6854500838
0.5370266698
0.7312402391
0.6838485862
0.6273402432
0.3399899157
0.6969984271
0.4156137021
0.5004931176
0.3800242255
0.8924615968
0.4483719630
0.7178830785
0.4257344964
0.5478007769
0.3713868886
0.7178929842
0.7124103810
0.7141002440
0.4050469774
0.7363134778
0.8859863241
0.6869738826
0.6674953334
0.8924724885
0.3804255725
0.4228604194
0.7489549224
0.7192069924
0.6618804053
0.4187658665
0.6849266683
0.4810540349
0.7279580152
0.7217689255
0.6599991472
0.6293441409
0.7960900632
0.6375920256
0.4407526936
0.8660139611
0.8534681876
0.6926248342
0.7277496698
0.9381442387
0.5698643747
0.4156581468
0.7277537835
0.7756708547
0.4609577786
0.3849620939
0.7256252772
0.4471876450
0.4913863229
0.7473683533
0.3714440510
0.5228964869
0.4530845116
0.6640952421
0.5515775728
0.7301431001
0.6599984093
0.7319646486
0.5895186958
0.3438901567
0.7127414045
0.4005390314
0.5153950792
0.3722261290
0.4273710148
0.4144673805
0.5070088644
0.3552621452
0.7044763366
0.7251891558
0.7017123713
0.4143557352
0.9070376267
0.7437219732
0.9202992972
0.3867702717
0.4310868981
0.7336791593
0.6153501667
0.4026050399
0.4841752645
0.7228647633
0.9381211641
0.6640957809
0.6617683754
0.6113459169
0.4191393989
0.7961814036
0.9169997952
0.5245629160
0.4160395648
0.7355105532
0.8663973158
0.4749043233
0.5001832604
0.7282165220
0.4659901927
0.4934088897
0.7104525071
0.4743897117