<VTKFile type="UnstructuredGrid" version="0.1">
	<UnstructuredGrid>
		<Piece NumberOfPoints="1862" NumberOfCells="3498">
			<CellData>
				<DataArray type="Int32" Name="type" NumberOfComponents="1" Format="ascii">
0
0
0
0
0
0
0
0
0
0
0
0
0
0
0
0
1
0
0
1
0
0
0
0
0
0
0
0
0
0
0
0
0
1
0
0
0
0
0
0
0
0
0
0
0
0
0
0
0
0
1
0
0
0
0
0
0
0
0
0
0
1
0
0
0
0
0
0
0
0
0
0
0
0
0
0
0
0
0
0
0
0
0
0
0
0
0
0
0
0
0
0
0
0
0
0
0
0
0
0
0
0
0
0
0
0
0
0
0
0
0
0
0
0
0
0
0
0
0
0
0
0
0
1
0
0
0
0
0
0
0
0
0
0
0
0
0
0
0
0
0
0
0
0
0
0
0
0
0
0
0
1
0
1
1
0
0
0
0
0
0
0
0
0
0
0
0
0
1
0
1
0
0
0
0
1
0
0
0
0
0
0
0
0
1
1
0
0
0
0
0
1
0
0
0
0
0
0
0
0
1
0
0
0
0
0
0
0
0
0
0
0
0
0
0
0
0
0
0
0
0
0
0
0
0
0
0
0
0
0
0
0
0
1
0
0
0
0
0
0
0
0
0
0
0
0
0
0
0
0
0
0
0
0
0
0
0
0
0
0
0
0
0
0
0
0
0
0
0
0
0
0
0
0
0
0
0
0
0
0
0
1
0
0
0
0
0
0
0
0
0
0
0
0
0
0
0
0
0
0
0
0
0
0
0
0
0
0
0
0
0
0
0
0
0
0
0
0
0
0
0
0
0
0
0
0
0
0
0
0
0
0
1
0
0
0
0
0
0
0
0
0
0
0
0
0
0
0
0
0
0
0
0
0
0
0
0
0
0
0
0
0
0
0
0
0
0
0
0
0
0
0
0
0
0
0
0
0
0
0
0
0
0
0
0
0
0
0
0
0
1
0
0
0
0
0
0
0
0
0
0
0
0
0
0
0
0
0
0
0
0
0
0
0
0
0
0
0
0
0
0
0
0
0
0
0
0
0
0
0
0
0
0
0
0
0
0
0
0
0
0
0
0
0
0
0
0
0
0
0
0
0
0
0
0
0
0
0
0
0
0
0
0
0
0
0
0
0
0
0
0
0
0
0
0
0
0
0
0
0
0
0
0
0
0
0
0
0
0
0
0
0
0
0
0
0
0
0
0
0
0
0
0
0
0
0
0
0
0
0
0
0
0
0
0
0
0
0
0
0
0
0
0
1
0
0
0
0
0
0
0
0
0
0
0
0
0
0
0
0
0
0
0
1
0
0
0
0
0
0
0
0
0
0
0
0
0
0
0
0
0
0
0
0
0
0
0
0
0
0
0
0
0
0
0
0
0
0
0
0
0
0
0
0
0
0
0
0
0
0
0
0
0
0
0
0
0
1
0
0
0
0
0
0
0
0
0
0
0
0
0
0
0
0
0
0
0
0
0
0
0
1
0
0
0
0
0
0
0
0
0
0
0
0
0
0
0
0
0
0
0
1
0
0
0
1
0
0
0
0
0
0
0
0
0
0
0
0
0
0
0
0
0
0
0
0
0
0
0
0
0
1
0
0
0
0
0
0
0
1
0
0
0
0
0
0
0
0
0
0
0
0
0
0
0
0
0
0
0
0
0
0
0
0
0
0
1
0
0
0
0
0
0
0
1
0
0
0
0
0
0
1
0
0
0
0
0
0
0
0
0
0
0
0
0
0
0
0
0
0
0
0
0
0
0
0
0
0
0
0
0
0
0
0
0
0
0
0
0
0
1
0
0
0
0
0
1
0
0
0
0
0
0
0
1
0
0
0
0
0
0
0
0
0
0
0
0
0
1
0
0
0
0
0
0
0
0
0
0
0
0
0
0
0
0
0
0
0
0
0
0
0
0
0
0
0
0
0
0
0
0
0
0
0
0
0
0
0
0
0
0
0
0
0
0
0
0
0
0
0
0
0
1
0
0
0
0
0
0
0
0
0
0
0
0
0
0
0
0
0
0
0
1
0
0
0
0
0
0
0
0
0
1
0
0
0
0
0
0
0
0
0
0
0
0
0
0
0
0
0
0
0
0
0
0
0
0
0
0
0
0
0
1
0
1
0
0
0
0
0
0
0
0
0
0
0
0
0
0
0
0
0
0
0
0
0
0
0
0
0
0
0
1
0
0
0
1
0
0
0
0
0
0
0
0
0
0
0
0
0
0
0
0
0
0
0
0
0
0
0
0
0
0
0
0
1
0
0
0
0
0
0
0
0
0
0
0
0
0
0
0
0
0
0
0
0
0
0
0
0
0
1
0
0
0
0
0
0
0
0
0
0
0
0
0
0
0
0
0
0
0
0
0
0
0
1
0
0
0
0
0
0
1
0
0
0
0
0
0
0
0
0
0
0
1
0
0
0
0
0
0
0
0
0
0
0
0
0
0
0
0
0
0
0
0
1
0
0
0
0
0
0
0
0
0
0
0
1
0
0
0
0
0
0
0
0
0
0
0
0
0
0
0
0
0
0
0
0
0
1
0
0
0
0
0
0
0
0
0
1
1
0
1
0
1
0
0
0
0
0
0
0
0
0
0
0
1
0
0
0
0
0
1
1
0
0
0
0
0
0
1
0
0
0
0
0
1
1
1
0
0
0
0
0
0
0
0
0
0
0
0
1
1
0
0
1
0
0
0
0
0
1
0
0
0
1
0
1
0
0
0
0
0
0
0
1
0
0
0
0
0
0
0
1
0
0
1
0
0
0
0
0
0
0
0
0
0
0
0
0
0
0
1
0
0
0
0
0
0
0
0
0
0
0
0
0
0
0
0
0
0
0
0
0
0
0
0
0
0
0
0
0
0
0
0
0
0
0
0
1
0
0
0
0
0
0
1
0
0
0
1
0
0
0
0
0
0
0
0
0
0
0
1
0
0
0
0
0
0
0
0
0
0
0
0
0
0
0
0
0
0
0
0
0
0
0
0
0
0
0
0
0
0
0
0
0
0
0
0
0
0
0
0
1
1
0
0
0
0
0
0
0
0
0
0
0
0
0
1
0
0
0
0
0
0
0
0
0
0
0
0
0
0
0
0
0
0
0
0
0
0
0
0
0
0
0
0
0
0
0
0
0
0
0
0
0
0
0
0
0
0
0
0
0
0
0
0
0
0
0
0
0
0
0
0
0
0
0
0
0
0
0
0
0
0
0
0
0
0
0
0
1
1
0
0
0
0
0
0
0
0
1
0
0
0
0
0
0
0
0
0
0
0
0
0
0
0
0
0
0
0
0
0
0
0
1
0
0
0
0
0
0
0
0
0
0
0
0
0
0
0
0
1
0
0
0
0
0
0
0
0
0
0
0
0
0
0
0
0
0
0
0
0
0
0
0
0
0
0
0
0
0
0
0
0
0
0
0
0
0
0
0
0
0
0
0
0
0
0
0
0
0
0
0
0
0
0
0
0
0
0
0
0
0
0
0
0
0
0
0
0
0
0
0
0
0
0
0
0
0
0
0
0
0
0
0
0
0
0
0
0
0
0
1
1
0
0
0
0
0
1
0
0
0
0
0
0
0
0
0
0
0
0
1
0
0
0
0
0
0
0
0
0
0
0
0
0
0
0
0
0
0
0
0
0
0
0
0
0
0
0
0
0
0
0
0
0
0
0
0
0
0
0
0
0
0
0
0
0
0
0
0
0
0
0
0
0
1
0
1
0
0
0
0
0
0
0
0
0
0
0
0
0
0
0
0
0
0
1
0
0
0
0
0
0
0
0
0
0
0
0
0
0
0
0
0
0
0
0
0
0
0
0
0
0
0
0
0
0
0
0
0
0
0
0
0
0
0
0
0
0
0
0
0
0
0
0
0
0
0
0
0
0
0
0
0
0
0
0
0
0
0
0
0
0
0
0
0
0
1
0
0
0
0
0
0
0
0
0
0
1
0
0
0
0
0
0
0
0
0
0
0
0
0
0
0
0
0
0
0
0
0
0
0
0
0
0
0
0
0
0
0
0
0
0
0
0
0
1
0
0
0
0
0
0
0
0
0
0
0
0
0
0
0
0
0
0
0
0
0
0
0
0
0
0
0
0
0
0
0
0
0
0
0
0
0
0
0
0
0
0
0
0
0
0
0
0
0
0
0
0
0
0
0
0
0
0
0
0
0
0
0
0
0
0
0
0
0
0
0
0
0
0
0
0
0
0
0
0
0
1
0
0
0
0
0
0
0
0
0
0
0
0
0
0
0
0
0
0
0
0
0
0
0
0
0
0
0
0
0
0
0
0
0
0
0
0
0
0
0
0
0
0
0
0
0
0
0
0
0
0
0
0
0
0
0
0
0
0
0
0
0
0
0
0
0
0
0
0
0
0
0
0
0
0
0
0
0
0
0
0
0
0
0
0
0
0
0
0
0
0
0
0
0
0
0
0
0
0
0
0
0
0
0
0
0
0
0
0
0
0
0
0
0
0
0
0
0
0
0
0
0
0
0
1
0
0
0
0
0
0
0
0
0
0
0
0
0
0
0
0
0
0
0
0
0
0
0
0
0
0
0
0
0
0
0
0
0
0
0
0
0
0
0
0
0
0
0
0
0
0
0
0
0
0
0
0
0
0
0
0
0
0
0
0
0
0
0
0
0
0
0
0
0
0
0
0
0
0
0
0
0
0
0
0
0
1
0
0
0
0
0
0
0
1
0
0
0
0
0
0
0
0
0
0
0
0
0
0
0
0
0
0
0
0
0
0
0
0
0
0
0
0
0
0
0
0
0
0
0
0
0
1
0
0
0
0
0
0
0
0
0
0
0
0
0
0
0
0
0
0
0
0
0
1
0
0
0
0
0
0
0
0
0
0
0
0
1
1
0
0
0
0
0
0
0
0
0
0
0
0
0
0
0
1
1
0
1
0
0
0
0
0
0
0
0
0
1
0
0
0
0
0
0
1
0
0
0
0
0
0
0
0
0
0
1
0
0
0
0
1
0
1
0
0
0
0
0
0
0
1
0
0
0
1
0
0
0
1
0
1
1
0
0
1
1
0
0
0
1
0
0
0
1
0
0
0
0
0
0
0
0
0
1
0
0
0
0
0
0
1
0
0
0
0
0
0
0
0
0
0
0
0
0
0
0
0
0
0
0
0
0
0
0
0
0
0
0
1
0
0
1
0
0
0
0
0
0
0
0
0
0
0
0
0
0
0
0
0
0
1
0
0
1
0
0
0
0
0
0
0
0
0
0
0
1
0
0
1
0
0
0
0
0
0
0
0
0
0
0
1
1
0
0
0
0
0
0
0
0
0
0
0
0
1
0
0
0
0
0
0
0
0
0
0
0
0
0
0
0
0
0
1
0
0
0
0
0
0
0
0
0
0
0
0
0
0
0
0
0
1
0
0
0
0
0
0
0
0
0
0
0
0
0
0
0
0
0
0
0
0
0
0
0
0
0
0
0
0
0
0
0
0
0
0
0
0
0
0
0
0
1
0
0
0
0
0
0
0
0
0
0
0
0
0
0
0
0
0
0
0
0
0
0
0
0
0
0
0
0
0
0
0
0
0
0
0
0
0
0
0
0
0
0
0
0
0
1
0
0
0
0
0
0
0
0
0
0
0
0
0
0
0
0
0
0
0
0
0
0
0
0
0
0
0
0
0
0
0
0
0
0
0
0
0
0
0
0
0
0
0
0
0
0
0
1
0
0
0
0
0
0
0
0
0
0
1
0
0
0
0
0
0
0
0
0
0
0
0
0
0
0
1
0
0
1
0
0
0
0
0
0
0
0
0
0
0
0
0
0
0
0
0
0
0
0
0
0
0
1
0
0
0
0
0
0
0
0
0
0
0
0
0
0
0
0
0
0
0
0
0
0
0
0
0
0
0
0
0
0
0
0
0
0
0
1
0
0
0
0
0
0
0
0
0
0
0
0
0
0
0
0
0
0
0
0
0
0
0
0
0
0
0
0
0
0
0
0
0
0
0
0
0
0
0
0
0
0
0
0
0
0
0
0
0
0
0
0
0
0
0
0
0
0
0
0
0
0
0
0
0
0
0
0
0
0
0
0
0
0
0
0
1
0
0
0
0
0
0
0
0
0
0
0
0
0
0
0
0
0
0
0
0
0
0
0
0
0
0
0
0
0
0
0
0
0
0
0
0
0
0
0
1
0
0
0
0
0
0
0
0
0
0
0
0
1
1
0
0
0
0
0
0
0
0
0
0
0
0
0
0
0
0
0
0
0
0
0
0
0
0
0
0
0
0
0
0
0
0
0
0
0
0
0
0
0
0
0
0
0
0
0
0
0
0
0
0
0
0
0
0
0
0
0
0
0
0
0
0
0
0
0
0
0
0
0
0
0
0
0
0
0
0
0
0
0
0
0
0
0
0
0
0
0
0
0
0
0
0
0
0
0
0
0
0
0
0
0
1
0
1
0
0
0
0
0
0
0
1
1
1
1
0
0
0
0
0
0
0
0
0
0
0
0
0
0
0
0
0
0
0
0
0
0
0
0
0
0
0
0
1
1
0
0
0
0
0
0
0
0
0
0
0
0
0
0
0
0
0
0
1
0
0
0
0
0
0
0
1
1
0
1
1
0
0
1
0
0
0
0
0
0
0
1
0
1
0
0
0
0
0
0
0
0
0
0
0
0
0
0
0
0
0
0
0
0
0
0
0
0
0
0
0
1
1
0
0
0
1
1
0
0
0
0
1
0
0
1
0
1
0
0
0
0
0
1
0
0
0
1
0
0
0
0
0
0
0
0
0
0
0
0
0
0
0
0
0
0
0
0
0
0
0
0
0
0
0
1
0
0
0
0
0
0
1
0
0
0
0
0
0
0
0
0
0
0
0
0
0
0
0
0
0
0
0
0
0
0
0
0
0
0
0
0
1
0
1
0
0
0
0
0
0
0
1
0
0
0
0
0
0
0
0
0
0
0
1
0
0
0
0
0
0
0
0
0
1
0
0
0
0
0
0
0
1
0
0
0
0
0
0
0
1
0
0
0
0
0
0
0
0
0
0
0
0
0
0
0
0
0
0
0
1
0
1
0
0
0
0
0
1
0
0
0
0
0
0
0
0
0
0
0
0
0
0
0
0
0
0
0
0
0
0
0
0
0
1
0
1
0
0
0
0
0
0
0
0
0
1
0
0
0
0
0
1
0
0
0
0
0
0
0
0
0
0
0
0
0
0
0
1
0
0
0
0
0
0
0
0
1
0
0
0
0
0
0
0
0
0
0
0
0
0
0
0
0
0
0
0
0
0
0
0
0
0
0
0
0
0
0
1
0
0
0
0
0
0
0
0
0
0
0
0
0
0
0
0
1
0
0
0
0
0
0
0
0
1
0
0
0
0
0
0
0
0
0
1
0
0
0
0
0
1
0
0
0
0
0
0
0
0
0
0
0
0
0
0
0
0
0
0
0
1
0
0
0
0
0
0
1
0
0
0
0
0
0
0
0
1
0
0
0
0
0
0
0
0
0
0
0
0
0
0
1
0
0
1
0
0
0
1
0
0
0
0
0
0
0
0
0
0
0
0
0
0
0
0
1
0
0
0
0
0
0
0
0
0
0
1
0
1
0
0
0
0
0
0
1
0
0
0
0
0
0
0
0
0
0
0
0
0
0
0
0
0
0
0
0
0
0
0
0
0
0
0
1
1
0
0
0
0
0
0
1
0
0
0
0
0
0
0
0
0
0
0
0
0
1
0
0
0
0
0
0
0
1
0
0
0
0
0
0
0
0
0
0
0
0
0
0
0
0
0
0
0
0
0
0
0
0
0
0
0
1
0
0
0
0
0
0
0
0
0
0
1
0
0
1
0
0
0
0
0
0
0
0
0
0
0
0
0
0
0
0
0
0
0
0
0
0
0
0
0
0
0
0
0
1
0
0
0
0
0
0
0
1
0
0
0
0
0
0
0
1
0
0
0
0
1
0
0
0
0
0
0
0
0
0
0
0
1
0
1
0
0
0
1
0
				</DataArray>
				<DataArray type="Float64" Name="h" NumberOfComponents="1" Format="ascii">
0.8972471764
0.8973070532
0.8870550913
0.8963785663
0.8858760110
0.8892420986
0.8913395975
0.9021171819
0.8944027375
0.9150902953
0.8996783267
0.8903471762
0.9025452555
0.9062473597
0.9014956840
0.9121503436
0.8926533204
0.9130311443
0.8962628417
0.9011655068
0.8834895803
0.8987953535
0.8861032271
0.8840191950
0.8956479421
0.9205293535
0.8855639339
0.8629632114
0.8826105074
0.9098983043
0.9050354946
0.8871040291
0.8986255282
0.8874636902
0.8807130061
0.8803645342
0.8802075732
0.8800749222
0.8590864606
0.8828896968
0.8833751927
0.8698726610
0.8866107868
0.8767714016
0.8809177820
0.8682688369
0.8815662555
0.8795719537
0.8650760199
0.8588570537
0.8840141736
0.8755090612
0.8784972316
0.8647637970
0.8756428032
0.8798572307
0.8712339024
0.8789564434
0.8772332581
0.8712947085
0.8815822519
0.8820480407
0.8687781472
0.8772736505
0.8710764065
0.8565474229
0.8518473630
0.8627849499
0.8797814473
0.8802446525
0.8770192524
0.8780740567
0.8732818208
0.8662400123
0.8725926177
0.8423366789
0.8791210122
0.8777380954
0.8797087951
0.8502817924
0.8820480060
0.8563863099
0.8684065979
0.8557453205
0.8517137847
0.8430599291
0.8816507612
0.8471768096
0.8738862437
0.8647468222
0.8790898551
0.8451503182
0.8793450669
0.8593581995
0.8464018508
0.8468850929
0.8409267338
0.8528133929
0.8537522058
0.8813153402
0.8679016304
0.8825877130
0.8516497936
0.8793152262
0.9288612501
0.8446397814
0.8360190735
0.8672698431
0.8771592477
0.8507248302
0.8571124608
0.8632260962
0.8772729086
0.8747366988
0.8578491699
0.8808707626
0.8561667389
0.9238472380
0.8759807139
0.8643288165
0.9285205596
0.8458693941
0.8339912093
0.9352987260
0.8727776784
0.8702249206
0.8622685239
0.9407629671
0.8830182671
0.8785521596
0.8804051242
0.8403736663
0.8679329552
0.8847503918
0.9227434754
0.8792340477
0.9286192467
0.8826548670
0.8839226380
0.9055472354
0.9442772989
0.9291202373
0.8807157473
0.8921635241
0.8373351304
0.8818811965
0.9174836130
0.8774454064
0.9345382386
0.8778799893
0.9333425999
0.8836998042
0.8821451316
0.8817929732
0.8841329029
0.8800413288
0.8826548502
0.9377225402
0.8792628188
0.9519872393
0.8995245647
0.8797675157
0.9235674062
0.9469415086
0.9393838566
0.8759148643
0.8788454450
0.9135081391
0.9446770023
0.8791616926
0.8831406458
0.9510335852
0.8817268489
0.9390749254
0.8722260738
0.8810992912
0.8857556529
0.8719209888
0.8810640689
0.9472761801
0.8789232245
0.8595867121
0.9527978050
0.8285381577
0.9529856267
0.9564241386
0.8662724534
0.8798467515
0.9478471588
0.9580103978
0.8482346774
0.8810567519
0.9563180648
0.8546746845
0.8810112760
0.8729197996
0.9450878290
0.8379635517
0.8441258401
0.8741181863
0.9587517482
0.8268008287
0.9572039786
0.8787223988
0.8287788327
0.9525624001
0.9123064632
0.9333457106
0.8344544227
0.8855323403
0.8477315544
0.9556725123
0.9493813959
0.9540733456
0.9236640090
0.8371799127
0.8991974095
0.9479818589
0.8593638071
0.9549985752
0.8261125421
0.8549977349
0.8720912669
0.8410287294
0.8220371168
0.8706422506
0.8647433422
0.8293039129
0.8215695668
0.8606547017
0.8752484222
0.8481855036
0.8248101107
0.8719878346
0.8692757450
0.8344526963
0.8416126212
0.9062473051
0.9565482740
0.8789414614
0.8418479684
0.9283463789
0.9486296924
0.8788271916
0.9288796172
0.9067382048
0.9507693136
0.8528731067
0.9182745319
0.9436382284
0.8928292190
0.8532112835
0.9455818892
0.8316084176
0.8318080355
0.9502086151
0.8929635971
0.9189862955
0.9540774638
0.8433021089
0.8655163744
0.8158005474
0.8205382953
0.8317681771
0.8209671970
0.8665483959
0.8648878121
0.8202232953
0.8690521902
0.8459582758
0.8573362825
0.8653237795
0.8566234025
0.8296384528
0.8361346695
0.8165584731
0.8170962684
0.8254681756
0.8388463309
0.8194114583
0.8613217974
0.8665881899
0.8672132722
0.8633190100
0.8523177241
0.8504103425
0.8246808123
0.8998276757
0.9463902559
0.9437120642
0.9000791283
0.8363350316
0.9226201943
0.9237031320
0.8729213576
0.8374245334
0.8722872014
0.9121223546
0.9382469767
0.9502101924
0.9452004388
0.9128390051
0.8470611808
0.8283033689
0.8271650401
0.8864511285
0.8480441931
0.8861783256
0.9406376027
0.8118834019
0.8209788052
0.8139913489
0.8630243511
0.8165155116
0.8491934270
0.8338015053
0.8599800133
0.8477402978
0.8587841429
0.8591364337
0.8233808717
0.8144779969
0.8368905993
0.8598586816
0.8120149488
0.8167969090
0.8178963293
0.8610895666
0.8269549174
0.8410056368
0.8532798452
0.8565442327
0.8602980018
0.8142683363
0.8299309331
0.8145275557
0.8435314494
0.8934316169
0.8380565612
0.8677620704
0.8346538415
0.8665080125
0.9406436554
0.8331266350
0.9164118691
0.8936462263
0.9175134509
0.9378763574
0.8280769600
0.8121892108
0.8266750258
0.8123409391
0.9062545429
0.9344961559
0.8297183463
0.8806754490
0.8126146198
0.8445606756
0.8798613229
0.8157674974
0.8196009851
0.8302102042
0.9451995391
0.8427361830
0.8248836018
0.9058010211
0.8202844152
0.8163514577
0.8094632545
0.9388709535
0.8114157145
0.8206521582
0.9322620138
0.8518712018
0.8252263971
0.8168606111
0.8526680102
0.9138519280
0.8409467023
0.8107468282
0.8152688213
0.8387632395
0.8563082690
0.8555751380
0.8286963967
0.8540083820
0.8105280842
0.8145179485
0.8100799776
0.8629499564
0.8534216317
0.8141075217
0.8191875847
0.8314103151
0.8492847072
0.8224032166
0.9094018895
0.8901903884
0.8811228970
0.8412662896
0.8094722225
0.8447645376
0.8475243516
0.8319927829
0.8358861359
0.8543530905
0.8351068219
0.8118978079
0.8114152407
0.8547426265
0.8126324443
0.8156061507
0.8187483281
0.8149297862
0.8873248020
0.8312497902
0.8293778118
0.8617955225
0.8155937805
0.8100894795
0.8227608510
0.8257300133
0.9110686372
0.8239551076
0.8285135874
0.8108138431
0.8399145243
0.9345105160
0.8174130699
0.8315051373
0.8101424437
0.8277996932
0.8124733597
0.8238918601
0.8114844117
0.8102364395
0.8194310101
0.8239840806
0.8379127220
0.8249433328
0.8177195961
0.8162857749
0.8998408704
0.8167045477
0.8215332354
0.8743626987
0.8086375365
0.8181100975
0.8141925915
0.8170426550
0.8140392905
0.8421041763
0.9388677363
0.8131889474
0.8400866642
0.8257280325
0.8238856825
0.8215914409
0.8141176192
0.8235263022
0.9282748348
0.8244699794
0.8820189065
0.8492304351
0.8502409565
0.8184885923
0.8089012143
0.8092894183
0.8380965601
0.9048794848
0.8451762648
0.8583379061
0.8305793550
0.8390136275
0.8159007351
0.8104148323
0.8226215635
0.8571788443
0.9280762053
0.9104515188
0.9050823786
0.8254008838
0.8939515724
0.8469851309
0.8222512975
0.8215256648
0.8365396668
0.8982601449
0.8137198761
0.8867072498
0.8220263260
0.8117259551
0.8235898279
0.9219094956
0.9093913050
0.8718850478
0.8699096867
0.8231687392
0.8243324704
0.9007234428
0.8210734075
0.8197710628
0.8651844659
0.8811119259
0.8412604619
0.8479914255
0.8089057269
0.9326100090
0.8208983670
0.8217868466
0.8982719916
0.8314848499
0.8188299620
0.8583320193
0.8264832352
0.9280693313
0.8163213985
0.8210265633
0.9253593007
0.8604950537
0.8314805649
0.8154558277
0.8203141995
0.8334171135
0.8832519935
0.8180042839
0.9012231155
0.8168508058
0.8294837251
0.8341077700
0.8152049646
0.8820115573
0.8137232179
0.9044350900
0.9048681603
0.8436518569
0.9218999161
0.8699032760
0.9326049225
0.8294831962
0.8253985443
0.8492544568
0.8765254621
0.9298972009
0.8619536377
0.8718363646
0.9050729143
0.8390086758
0.8553907660
0.8839633563
0.8248791897
0.8690247215
0.8943675278
0.8341120726
0.9198362626
0.8301485986
0.8280905717
0.8908648768
0.8192998721
0.8235741872
0.8415721914
0.8969401408
0.8216069779
0.8939421820
0.8386007593
0.8240117640
0.8479860062
0.8089117154
0.8210981395
0.8421346552
0.8504315364
0.8204450158
0.8191418630
0.8192329441
0.8100924951
0.9193702857
0.8177653309
0.8243062673
0.8188333478
0.8418289177
0.8686600249
0.8142231228
0.8210762205
0.8980605049
0.8229260352
0.8992494843
0.8379227819
0.8187761042
0.8086424319
0.8870308677
0.8399397673
0.8456025977
0.8737503243
0.8392112258
0.8818782843
0.8131900957
0.8352365171
0.9236810721
0.8234838040
0.8499642993
0.8334061414
0.8496682261
0.8223434115
0.8793660468
0.8108338753
0.8741056520
0.8560186434
0.8218849764
0.8293937145
0.8935717547
0.8619716153
0.9074284759
0.8213511265
0.8911473036
0.8243070474
0.8896992428
0.8221464970
0.9044251202
0.8504236531
0.8341017400
0.8832427740
0.8252251233
0.8268205235
0.9140520780
0.9253521769
0.8586726691
0.8904613031
0.8254877657
0.9198277807
0.8786807046
0.8560163529
0.8875128913
0.8733107865
0.8280868159
0.8604863348
0.8415649039
0.8943579778
0.8237735563
0.8255216606
0.8226703545
0.8222479126
0.9298913518
0.8622340975
0.8501640437
0.8399884139
0.8231782817
0.8205882642
0.8341116179
0.8677659461
0.8225795085
0.8905116979
0.8643658119
0.9158053564
0.8942771622
0.8904461618
0.8469590662
0.8341196408
0.8718270908
0.8230712130
0.8743395958
0.9201832661
0.9029180435
0.8224636292
0.8243690865
0.8254133248
0.8224274788
0.8917083995
0.8551231956
0.9100812505
0.8845084509
0.8243182705
0.8249701226
0.8436489202
0.8676998686
0.8498663879
0.8835058839
0.8244256006
0.8853594977
0.8811298237
0.8277839512
0.8275765855
0.8571193450
0.8638497769
0.8259055625
0.8699773822
0.8734881159
0.8883669563
0.8264646390
0.8276888454
0.8275990924
0.8765467684
0.8829617804
0.8895510890
0.8896471287
0.8859788204
0.8268617949
0.8277164263
0.8232637321
0.8252530803
0.8913669175
0.8287650881
0.8282096024
0.8920320472
0.8255148335
0.8242092602
0.8935630997
0.8293953482
0.8690166559
0.8269039896
0.8914434463
0.8850405524
0.8302776374
0.8911388928
0.8286306376
0.8264235490
0.8969284851
0.8251986825
0.8981786913
0.8982603554
0.8245054131
0.8247452670
0.9080731250
0.8911293893
0.8909571293
0.8909991786
0.8911773729
0.8931440293
0.8903363563
0.8996517534
0.8996728766
0.8868266932
0.8892257625
0.8858940006
0.8868473493
0.8944308171
0.9014527192
0.8913115181
0.9104428106
0.8997085675
0.8931645057
0.9068394291
0.9129990450
0.8964017817
0.8870689547
0.8961953789
0.9098751683
0.9116586683
0.8886307093
0.9021576965
0.9205330455
0.8956320140
0.9151206850
0.9040592153
0.9026033793
0.8864619324
0.9062332691
0.8921422640
0.9104707488
0.9050201147
0.9068917749
0.8874606151
0.8985554527
0.8870422791
0.8928177568
0.8828796479
0.8598528860
0.8926594355
0.9121819271
0.8865234555
0.8590410871
0.8886372259
0.9116843632
0.8833499447
0.9062682234
0.9011762191
0.8864705915
0.8861743194
0.8780673715
0.8988587972
0.8831199925
0.9041220136
0.8834939424
0.8922234643
0.8916820600
0.8618570019
0.8795657310
0.9062902399
0.8809068203
0.8840085946
0.8814873106
0.8629909446
0.8840299977
0.8826394285
0.8712125060
0.8635238551
0.8856536568
0.8790544621
0.9172708275
0.8599075258
0.8726427306
0.8792380800
0.8928898868
0.8784553068
0.8780704474
0.8613286023
0.8665230214
0.8917685452
0.8831277949
0.8800171882
0.8618673751
0.8803751833
0.8710218110
0.8801615585
0.8763386997
0.8807202639
0.8688042042
0.8627962446
0.8653693478
0.8802126931
0.8772674345
0.8726328287
0.8778722906
0.8756244633
0.8768220532
0.8662553278
0.8688996768
0.8780727748
0.8731983893
0.8809125201
0.8618666966
0.8685191563
0.8790612594
0.8813967231
0.8792447575
0.8698743007
0.8791170396
0.8770186949
0.8690560570
0.8725997333
0.8635885613
0.8747978412
0.8797792860
0.8819981557
0.9173007210
0.8802375264
0.8800237692
0.8763402554
0.8525673520
0.8653660854
0.8604231383
0.8745229619
0.8544642845
0.8650386204
0.8755230103
0.8665059991
0.8683021078
0.8563883473
0.8557486438
0.8651728108
0.8613034397
0.8588407514
0.8815822469
0.8820541839
0.8748787613
0.8808219088
0.8690375250
0.8772332000
0.8746297765
0.8688854956
0.8458795918
0.8669866247
0.8778756312
0.8820053058
0.8721201037
0.8756419406
0.8798537136
0.8809149381
0.8814032770
0.8799390177
0.8603417144
0.8740088694
0.8619350389
0.8647419720
0.8756234370
0.8712834631
0.8451022191
0.8789616229
0.8685842119
0.8793498152
0.8604027921
0.8793074963
0.8537157088
0.8651585085
0.8553497056
0.8745157741
0.8825869349
0.8477542782
0.8798686230
0.8537184230
0.8565612907
0.8679556802
0.8518436515
0.8803346667
0.8527543275
0.8830207903
0.8468558325
0.8683150073
0.8544711578
0.8813245299
0.8446249395
0.8526001869
0.8710213855
0.8603286862
0.8771632385
0.8632785739
0.8808220145
0.8740038569
0.8772796792
0.8721091962
0.8423897503
0.8527007430
0.8746248842
0.8777369925
0.8670587519
0.8793416746
0.8459277964
0.8571371398
0.8507255362
0.8798533824
0.8798642103
0.8709800032
0.8611928504
0.8830231154
0.8431085363
0.8458697808
0.8713599084
0.8803409026
0.9266711214
0.8682999709
0.8537035461
0.8517738282
0.8503378896
0.8816448824
0.8683525983
0.8820429526
0.8561882124
0.8797137181
0.8477732071
0.9285119758
0.8471876592
0.8554091793
0.8793299017
0.8403453418
0.8502196568
0.9281315220
0.8702691836
0.8754553569
0.8762794409
0.8738728857
0.8464266360
0.8593217059
0.8766993482
0.8646861607
0.8790741794
0.8737808486
0.8808384486
0.8727882132
0.8622886008
0.8527106785
0.8785724779
0.8516460595
0.8738252320
0.8456791121
0.8611713603
0.9266763008
0.8713411505
0.8715169747
0.9227323653
0.8792581661
0.8679567347
0.9288722034
0.8409580467
0.8372891640
0.8433481439
0.9291128380
0.8700931826
0.9281279302
0.8766713303
0.8747151193
0.8672216809
0.9243530240
0.8808444913
0.8762630173
0.8578340310
0.9345355535
0.8502310698
0.8807357353
0.9394739440
0.8808484988
0.8754461987
0.8818988821
0.8737479123
0.8360668499
0.9307739533
0.8366693681
0.8388825150
0.8838476786
0.8737963017
0.8714917324
0.9370686524
0.8829679296
0.8716253587
0.8832836650
0.8643077765
0.8457242254
0.8837155397
0.9238583704
0.8826434570
0.8759536370
0.9183297636
0.9333769517
0.8821601790
0.8841384375
0.9243359661
0.9394798800
0.9134797943
0.9393835505
0.8700817407
0.8797217680
0.9307774301
0.9434819799
0.8762194124
0.8386603691
0.8433802820
0.9353059105
0.8830018068
0.8994939362
0.9351791512
0.8340392991
0.8803864091
0.9169291892
0.9235928166
0.8834718063
0.8797756083
0.9407651380
0.8792673025
0.8832719239
0.9285918528
0.8847331687
0.8815996805
0.8347703321
0.8715788807
0.8817188778
0.8826370977
0.8817373303
0.9123946469
0.9365770220
0.8839141480
0.9183409013
0.8389472770
0.9370444274
0.8838317083
0.8367135212
0.8826302149
0.8791719680
0.8845596146
0.8829504186
0.8831551896
0.9390760939
0.8778741726
0.9527943049
0.8351821342
0.9351818292
0.9434828192
0.8741824057
0.8812903449
0.8806794358
0.8922234778
0.8774338259
0.9174945136
0.9472753198
0.8762064224
0.9169407571
0.8387028108
0.9517414378
0.9442770875
0.8789408877
0.8834553822
0.8856988910
0.8849552299
0.9056069447
0.8797152203
0.9493729654
0.9478417232
0.8800257854
0.8826424958
0.9365678026
0.8297476271
0.8815882756
0.9251225989
0.9124017393
0.8348246148
0.9529763928
0.8816988515
0.8817803665
0.9377199730
0.8845451892
0.8662089718
0.8303652055
0.8810190917
0.8789180716
0.9493749530
0.8741531126
0.8729512069
0.9517442543
0.8806735583
0.8849421509
0.8755344959
0.9531705578
0.8812802984
0.8352309231
0.9474972648
0.8810646246
0.8847075580
0.9469402104
0.8758937317
0.8546210504
0.8742256136
0.9519905744
0.8267484646
0.8794041314
0.9510408653
0.9571955013
0.8722864533
0.8787252516
0.8298052261
0.9446842368
0.9587419039
0.9251282553
0.8440806343
0.8782095488
0.8810568642
0.9454866664
0.9531761345
0.9474998460
0.9556652636
0.8742080946
0.8755142801
0.9514171121
0.8707834255
0.8596390866
0.8846917811
0.8810915542
0.8304205725
0.9576954460
0.9583278928
0.8719018048
0.9493804491
0.8344148887
0.8482774392
0.8752575256
0.8793990537
0.9580198555
0.8782030827
0.8766734253
0.8763243635
0.8285847523
0.9564327984
0.8798415359
0.8260788776
0.9507667295
0.9067329325
0.9425078207
0.9289141049
0.8379985777
0.9583374984
0.8278787734
0.9550345986
0.8789234268
0.9416109807
0.9454826096
0.8415871873
0.9563249945
0.9573768027
0.8707424171
0.9450823507
0.9555250606
0.9190073367
0.9382956711
0.8315890684
0.8929480969
0.9455865004
0.8528409761
0.9577042902
0.9565415466
0.9514197289
0.8724646668
0.8231064493
0.8288074549
0.8766666542
0.8504082524
0.8652868998
0.8763160564
0.8360444921
0.8193750087
0.8671997113
0.8613825075
0.8674972417
0.8246074167
0.8202017852
0.8566711750
0.8741066076
0.8432467170
0.8209138262
0.8690548700
0.8644712956
0.8665740511
0.8295383562
0.8477670757
0.9000807251
0.9368476931
0.9550032740
0.8722687645
0.8363228792
0.9415949320
0.8279021240
0.9424922528
0.9535279073
0.8233492810
0.9237322845
0.9463901601
0.9550394778
0.8857012017
0.9333194364
0.9123223627
0.9525652800
0.8594043246
0.9128560715
0.9406467047
0.9573851155
0.8861660330
0.8470454861
0.9479811493
0.8372097942
0.8271524334
0.9327337781
0.9523147014
0.8992081901
0.9382749925
0.9236342396
0.9555308448
0.8482006085
0.8591175528
0.8197418724
0.8145072071
0.8167448897
0.8268448420
0.8248791580
0.8644209553
0.8692708563
0.8611015278
0.8216039585
0.8719744023
0.8609009193
0.8409611438
0.8533263163
0.8721349538
0.8724558872
0.8605945087
0.8345346615
0.8410820219
0.8165040940
0.8144456638
0.8208996813
0.8337134503
0.8220912977
0.8646870543
0.8674541621
0.8630305312
0.8231250144
0.8706570384
0.8598840496
0.8477523070
0.8573052087
0.8549650378
0.8293880991
0.8934363316
0.9312306528
0.9486305067
0.9535314503
0.9406469745
0.9062440773
0.8418686937
0.8207493735
0.9175353324
0.8233649161
0.9283203279
0.8665016060
0.8331207014
0.8789611072
0.9368294139
0.9062699922
0.9345077701
0.9523175500
0.9478707456
0.9182498442
0.8532341673
0.8248769713
0.9269027988
0.8318252382
0.9327110548
0.8798578667
0.8427310968
0.8928395628
0.9436333914
0.8118871772
0.8255697465
0.8113859407
0.8665913542
0.8165756334
0.8447817959
0.8389061342
0.8540020504
0.8522785215
0.8572622691
0.8535136364
0.8543485073
0.8185531383
0.8655387455
0.8191075013
0.8171499718
0.8319294799
0.8632979932
0.8105122064
0.8206112613
0.8144639428
0.8648803916
0.8197528519
0.8494699985
0.8318643462
0.8459673421
0.8572827887
0.8526824463
0.8563064747
0.8152634326
0.8251403118
0.8158344057
0.8387416582
0.8608599490
0.8312313309
0.8101396977
0.8204005897
0.8155778854
0.8998208825
0.9312131187
0.8336056284
0.8265573039
0.8617968821
0.8131540798
0.8315038439
0.8729282038
0.8130441628
0.8239371535
0.8322985381
0.9437102418
0.8374341349
0.8207589784
0.9110842768
0.8873305801
0.9225976840
0.8156064909
0.8205975481
0.8102288423
0.9345162967
0.8107321198
0.8191750541
0.9251683893
0.8315647569
0.8106367529
0.8244692194
0.8139211201
0.9121052754
0.9382391024
0.8355921270
0.8265417285
0.8743650954
0.8111948511
0.8400864125
0.8864533357
0.8145584750
0.8224754226
0.8333919442
0.9478709260
0.8480540404
0.8283142732
0.9205640363
0.8998521926
0.9268826349
0.8179015071
0.8183401790
0.8094417683
0.9424151376
0.8112934565
0.8229088997
0.9282861376
0.8576463711
0.8469686811
0.8191336096
0.8300122261
0.8374607723
0.8457330999
0.8136754318
0.8565291844
0.9104621660
0.9090990126
0.8856881471
0.8365327216
0.8867181859
0.8484040771
0.8117211359
0.8494422512
0.8142758590
0.8426290112
0.8435287697
0.8317534855
0.8602983344
0.8502421159
0.8242800979
0.8599891814
0.8120431001
0.8179720884
0.8621786993
0.8088932904
0.8651931631
0.8492119702
0.8158991643
0.8234770085
0.8334078669
0.8451768964
0.8184304430
0.8534825628
0.9144698755
0.9127191511
0.8909281998
0.8415164159
0.8825232794
0.8436165906
0.8092821401
0.8491600834
0.8185593206
0.8499715183
0.8369363496
0.8380998855
0.8587813141
0.8305461873
0.8118970542
0.8140421050
0.8571871457
0.8103881666
0.8136137376
0.8181559158
0.8222143297
0.8381587429
0.8210261360
0.8131557307
0.8154533618
0.8155237328
0.8936385430
0.8352853219
0.8155961952
0.8333869052
0.8352702818
0.8251242595
0.8677610824
0.8179010527
0.8091282667
0.8205968504
0.8093444745
0.8232691698
0.8187025521
0.9163949487
0.8273337077
0.8323204216
0.8127388264
0.8192869790
0.8178790487
0.8151977580
0.8447681620
0.9378722064
0.8155270491
0.8191921934
0.8346573956
0.8202829899
0.8227617745
0.8248588581
0.8235556018
0.8093474431
0.8137189327
0.8248792916
0.8130551841
0.8265742047
0.8217989886
0.9251534928
0.8204041255
0.8107365391
0.8110262611
0.8284888599
0.8121913402
0.8199267743
0.8278752560
0.8173999573
0.8419673680
0.8231337155
0.8163513836
0.8160267149
0.8150720650
0.9057874113
0.8336293358
0.8169356837
0.8341675676
0.8230431378
0.8806722751
0.8196195735
0.8086857097
0.8257113287
0.8257128154
0.8167188379
0.9205483676
0.8280923589
0.8297388666
0.8169681730
0.8178822415
0.8138618025
0.8463208261
0.9424130864
0.8115393602
0.8114807949
0.8157820170
0.8445622401
0.8232674355
0.8252031074
0.8232880695
0.8094680277
0.8128503674
0.8262483892
0.8113001799
0.8229275928
0.8222822804
0.9322529439
0.8266783908
0.8111969403
0.8123540755
0.8880410540
0.8534296813
0.8213449111
0.8223298068
0.8415097426
0.8555755266
0.9050708832
0.8224753650
0.8825128531
0.8204426448
0.8098936303
0.8094831241
0.8358823000
0.8234688259
0.9189515424
0.9090877392
0.9102303608
0.8492816767
0.8701629337
0.8636787112
0.8225688063
0.8351305300
0.8983160842
0.8199787946
0.8205587999
0.8576373949
0.8901787938
0.8366773082
0.8366727170
0.8422642646
0.8141109571
0.8126759473
0.8235610917
0.8547343644
0.8425721488
0.9318367493
0.9138417982
0.8177665732
0.8221993712
0.9043823773
0.8942778592
0.8268307437
0.9057433999
0.8188550455
0.8997913793
0.8518790350
0.8218764436
0.8217361867
0.8409410241
0.9025398312
0.8169293454
0.8909169548
0.8208343202
0.8107521361
0.8425678217
0.8231618428
0.9259836617
0.9127088044
0.9142394540
0.8457202311
0.8737597515
0.8757459178
0.8231611898
0.8287511750
0.9043705032
0.8200434881
0.8194701132
0.8629411823
0.8856770647
0.8436113078
0.8665765435
0.8525180314
0.8191368283
0.8101038593
0.8231425813
0.8621705455
0.9362623433
0.9144602476
0.8948031342
0.8215306884
0.8208893738
0.9088565510
0.8983279644
0.8337699327
0.8176827700
0.8392552018
0.9189402050
0.8636726675
0.8251246515
0.9318309341
0.8156015003
0.8249432185
0.8215301459
0.8557934358
0.8191122101
0.8818292459
0.9217571285
0.8682829671
0.8257590087
0.8562524741
0.8139101620
0.9048683002
0.8337670603
0.8504985225
0.8139129265
0.8094484327
0.8187045047
0.8799970440
0.8273164556
0.8356248584
0.8264828657
0.8179009947
0.8257782950
0.8643608738
0.8776834820
0.8181656070
0.8224988840
0.8305572927
0.9017548412
0.8136130182
0.9129461604
0.8155273423
0.8114212177
0.8278394822
0.8344590636
0.8238744439
0.8234764768
0.8935506536
0.8380824556
0.8209818134
0.8183397743
0.8155662368
0.8230043420
0.8324871696
0.8946467297
0.8155754018
0.8205731161
0.8880330749
0.8443346142
0.8129214657
0.8992216509
0.9102184863
0.8206680330
0.8452407066
0.9259749652
0.8757392199
0.8293608526
0.9362584311
0.8150761743
0.8278387118
0.8168474510
0.8268280589
0.8509989320
0.8177208963
0.8780210525
0.9263601935
0.8638567695
0.8665904528
0.9041267489
0.8422608211
0.8572110315
0.8149288322
0.8141212876
0.8215343095
0.8850497508
0.8302331529
0.8179962663
0.8249002123
0.8708415337
0.8888094512
0.8167117400
0.8351416378
0.9014017176
0.9157534447
0.8167216672
0.8229853685
0.8293609773
0.8309229222
0.8272247782
0.8914537191
0.8199393089
0.8235444830
0.8390928243
0.8969777106
0.8170524642
0.8218138994
0.8997811508
0.8399882730
0.8140445885
0.9082845483
0.9142279560
0.8279040646
0.8525128033