<VTKFile type="UnstructuredGrid" version="0.1">
	<UnstructuredGrid>
		<Piece NumberOfPoints="1862" NumberOfCells="3498">
			<CellData>
				<DataArray type="Int32" Name="type" NumberOfComponents="1" Format="ascii">
0
0
0
0
0
0
0
0
0
0
0
0
0
0
0
0
1
0
0
1
0
0
0
0
0
0
0
0
0
0
0
0
0
1
0
0
0
0
0
0
0
0
0
0
0
0
0
0
0
0
1
0
0
0
0
0
0
0
0
0
0
1
0
0
0
0
0
0
0
0
0
0
0
0
0
0
0
0
0
0
0
0
0
0
0
0
0
0
0
0
0
0
0
0
0
0
0
0
0
0
0
0
0
0
0
0
0
0
0
0
0
0
0
0
0
0
0
0
0
0
0
0
0
1
0
0
0
0
0
0
0
0
0
0
0
0
0
0
0
0
0
0
0
0
0
0
0
0
0
0
0
1
0
1
1
0
0
0
0
0
0
0
0
0
0
0
0
0
1
0
1
0
0
0
0
1
0
0
0
0
0
0
0
0
1
1
0
0
0
0
0
1
0
0
0
0
0
0
0
0
1
0
0
0
0
0
0
0
0
0
0
0
0
0
0
0
0
0
0
0
0
0
0
0
0
0
0
0
0
0
0
0
0
1
0
0
0
0
0
0
0
0
0
0
0
0
0
0
0
0
0
0
0
0
0
0
0
0
0
0
0
0
0
0
0
0
0
0
0
0
0
0
0
0
0
0
0
0
0
0
0
1
0
0
0
0
0
0
0
0
0
0
0
0
0
0
0
0
0
0
0
0
0
0
0
0
0
0
0
0
0
0
0
0
0
0
0
0
0
0
0
0
0
0
0
0
0
0
0
0
0
0
1
0
0
0
0
0
0
0
0
0
0
0
0
0
0
0
0
0
0
0
0
0
0
0
0
0
0
0
0
0
0
0
0
0
0
0
0
0
0
0
0
0
0
0
0
0
0
0
0
0
0
0
0
0
0
0
0
0
1
0
0
0
0
0
0
0
0
0
0
0
0
0
0
0
0
0
0
0
0
0
0
0
0
0
0
0
0
0
0
0
0
0
0
0
0
0
0
0
0
0
0
0
0
0
0
0
0
0
0
0
0
0
0
0
0
0
0
0
0
0
0
0
0
0
0
0
0
0
0
0
0
0
0
0
0
0
0
0
0
0
0
0
0
0
0
0
0
0
0
0
0
0
0
0
0
0
0
0
0
0
0
0
0
0
0
0
0
0
0
0
0
0
0
0
0
0
0
0
0
0
0
0
0
0
0
0
0
0
0
0
0
1
0
0
0
0
0
0
0
0
0
0
0
0
0
0
0
0
0
0
0
1
0
0
0
0
0
0
0
0
0
0
0
0
0
0
0
0
0
0
0
0
0
0
0
0
0
0
0
0
0
0
0
0
0
0
0
0
0
0
0
0
0
0
0
0
0
0
0
0
0
0
0
0
0
1
0
0
0
0
0
0
0
0
0
0
0
0
0
0
0
0
0
0
0
0
0
0
0
1
0
0
0
0
0
0
0
0
0
0
0
0
0
0
0
0
0
0
0
1
0
0
0
1
0
0
0
0
0
0
0
0
0
0
0
0
0
0
0
0
0
0
0
0
0
0
0
0
0
1
0
0
0
0
0
0
0
1
0
0
0
0
0
0
0
0
0
0
0
0
0
0
0
0
0
0
0
0
0
0
0
0
0
0
1
0
0
0
0
0
0
0
1
0
0
0
0
0
0
1
0
0
0
0
0
0
0
0
0
0
0
0
0
0
0
0
0
0
0
0
0
0
0
0
0
0
0
0
0
0
0
0
0
0
0
0
0
0
1
0
0
0
0
0
1
0
0
0
0
0
0
0
1
0
0
0
0
0
0
0
0
0
0
0
0
0
1
0
0
0
0
0
0
0
0
0
0
0
0
0
0
0
0
0
0
0
0
0
0
0
0
0
0
0
0
0
0
0
0
0
0
0
0
0
0
0
0
0
0
0
0
0
0
0
0
0
0
0
0
0
1
0
0
0
0
0
0
0
0
0
0
0
0
0
0
0
0
0
0
0
1
0
0
0
0
0
0
0
0
0
1
0
0
0
0
0
0
0
0
0
0
0
0
0
0
0
0
0
0
0
0
0
0
0
0
0
0
0
0
0
1
0
1
0
0
0
0
0
0
0
0
0
0
0
0
0
0
0
0
0
0
0
0
0
0
0
0
0
0
0
1
0
0
0
1
0
0
0
0
0
0
0
0
0
0
0
0
0
0
0
0
0
0
0
0
0
0
0
0
0
0
0
0
1
0
0
0
0
0
0
0
0
0
0
0
0
0
0
0
0
0
0
0
0
0
0
0
0
0
1
0
0
0
0
0
0
0
0
0
0
0
0
0
0
0
0
0
0
0
0
0
0
0
1
0
0
0
0
0
0
1
0
0
0
0
0
0
0
0
0
0
0
1
0
0
0
0
0
0
0
0
0
0
0
0
0
0
0
0
0
0
0
0
1
0
0
0
0
0
0
0
0
0
0
0
1
0
0
0
0
0
0
0
0
0
0
0
0
0
0
0
0
0
0
0
0
0
1
0
0
0
0
0
0
0
0
0
1
1
0
1
0
1
0
0
0
0
0
0
0
0
0
0
0
1
0
0
0
0
0
1
1
0
0
0
0
0
0
1
0
0
0
0
0
1
1
1
0
0
0
0
0
0
0
0
0
0
0
0
1
1
0
0
1
0
0
0
0
0
1
0
0
0
1
0
1
0
0
0
0
0
0
0
1
0
0
0
0
0
0
0
1
0
0
1
0
0
0
0
0
0
0
0
0
0
0
0
0
0
0
1
0
0
0
0
0
0
0
0
0
0
0
0
0
0
0
0
0
0
0
0
0
0
0
0
0
0
0
0
0
0
0
0
0
0
0
0
1
0
0
0
0
0
0
1
0
0
0
1
0
0
0
0
0
0
0
0
0
0
0
1
0
0
0
0
0
0
0
0
0
0
0
0
0
0
0
0
0
0
0
0
0
0
0
0
0
0
0
0
0
0
0
0
0
0
0
0
0
0
0
0
1
1
0
0
0
0
0
0
0
0
0
0
0
0
0
1
0
0
0
0
0
0
0
0
0
0
0
0
0
0
0
0
0
0
0
0
0
0
0
0
0
0
0
0
0
0
0
0
0
0
0
0
0
0
0
0
0
0
0
0
0
0
0
0
0
0
0
0
0
0
0
0
0
0
0
0
0
0
0
0
0
0
0
0
0
0
0
0
1
1
0
0
0
0
0
0
0
0
1
0
0
0
0
0
0
0
0
0
0
0
0
0
0
0
0
0
0
0
0
0
0
0
1
0
0
0
0
0
0
0
0
0
0
0
0
0
0
0
0
1
0
0
0
0
0
0
0
0
0
0
0
0
0
0
0
0
0
0
0
0
0
0
0
0
0
0
0
0
0
0
0
0
0
0
0
0
0
0
0
0
0
0
0
0
0
0
0
0
0
0
0
0
0
0
0
0
0
0
0
0
0
0
0
0
0
0
0
0
0
0
0
0
0
0
0
0
0
0
0
0
0
0
0
0
0
0
0
0
0
0
1
1
0
0
0
0
0
1
0
0
0
0
0
0
0
0
0
0
0
0
1
0
0
0
0
0
0
0
0
0
0
0
0
0
0
0
0
0
0
0
0
0
0
0
0
0
0
0
0
0
0
0
0
0
0
0
0
0
0
0
0
0
0
0
0
0
0
0
0
0
0
0
0
0
1
0
1
0
0
0
0
0
0
0
0
0
0
0
0
0
0
0
0
0
0
1
0
0
0
0
0
0
0
0
0
0
0
0
0
0
0
0
0
0
0
0
0
0
0
0
0
0
0
0
0
0
0
0
0
0
0
0
0
0
0
0
0
0
0
0
0
0
0
0
0
0
0
0
0
0
0
0
0
0
0
0
0
0
0
0
0
0
0
0
0
0
1
0
0
0
0
0
0
0
0
0
0
1
0
0
0
0
0
0
0
0
0
0
0
0
0
0
0
0
0
0
0
0
0
0
0
0
0
0
0
0
0
0
0
0
0
0
0
0
0
1
0
0
0
0
0
0
0
0
0
0
0
0
0
0
0
0
0
0
0
0
0
0
0
0
0
0
0
0
0
0
0
0
0
0
0
0
0
0
0
0
0
0
0
0
0
0
0
0
0
0
0
0
0
0
0
0
0
0
0
0
0
0
0
0
0
0
0
0
0
0
0
0
0
0
0
0
0
0
0
0
0
1
0
0
0
0
0
0
0
0
0
0
0
0
0
0
0
0
0
0
0
0
0
0
0
0
0
0
0
0
0
0
0
0
0
0
0
0
0
0
0
0
0
0
0
0
0
0
0
0
0
0
0
0
0
0
0
0
0
0
0
0
0
0
0
0
0
0
0
0
0
0
0
0
0
0
0
0
0
0
0
0
0
0
0
0
0
0
0
0
0
0
0
0
0
0
0
0
0
0
0
0
0
0
0
0
0
0
0
0
0
0
0
0
0
0
0
0
0
0
0
0
0
0
0
1
0
0
0
0
0
0
0
0
0
0
0
0
0
0
0
0
0
0
0
0
0
0
0
0
0
0
0
0
0
0
0
0
0
0
0
0
0
0
0
0
0
0
0
0
0
0
0
0
0
0
0
0
0
0
0
0
0
0
0
0
0
0
0
0
0
0
0
0
0
0
0
0
0
0
0
0
0
0
0
0
0
1
0
0
0
0
0
0
0
1
0
0
0
0
0
0
0
0
0
0
0
0
0
0
0
0
0
0
0
0
0
0
0
0
0
0
0
0
0
0
0
0
0
0
0
0
0
1
0
0
0
0
0
0
0
0
0
0
0
0
0
0
0
0
0
0
0
0
0
1
0
0
0
0
0
0
0
0
0
0
0
0
1
1
0
0
0
0
0
0
0
0
0
0
0
0
0
0
0
1
1
0
1
0
0
0
0
0
0
0
0
0
1
0
0
0
0
0
0
1
0
0
0
0
0
0
0
0
0
0
1
0
0
0
0
1
0
1
0
0
0
0
0
0
0
1
0
0
0
1
0
0
0
1
0
1
1
0
0
1
1
0
0
0
1
0
0
0
1
0
0
0
0
0
0
0
0
0
1
0
0
0
0
0
0
1
0
0
0
0
0
0
0
0
0
0
0
0
0
0
0
0
0
0
0
0
0
0
0
0
0
0
0
1
0
0
1
0
0
0
0
0
0
0
0
0
0
0
0
0
0
0
0
0
0
1
0
0
1
0
0
0
0
0
0
0
0
0
0
0
1
0
0
1
0
0
0
0
0
0
0
0
0
0
0
1
1
0
0
0
0
0
0
0
0
0
0
0
0
1
0
0
0
0
0
0
0
0
0
0
0
0
0
0
0
0
0
1
0
0
0
0
0
0
0
0
0
0
0
0
0
0
0
0
0
1
0
0
0
0
0
0
0
0
0
0
0
0
0
0
0
0
0
0
0
0
0
0
0
0
0
0
0
0
0
0
0
0
0
0
0
0
0
0
0
0
1
0
0
0
0
0
0
0
0
0
0
0
0
0
0
0
0
0
0
0
0
0
0
0
0
0
0
0
0
0
0
0
0
0
0
0
0
0
0
0
0
0
0
0
0
0
1
0
0
0
0
0
0
0
0
0
0
0
0
0
0
0
0
0
0
0
0
0
0
0
0
0
0
0
0
0
0
0
0
0
0
0
0
0
0
0
0
0
0
0
0
0
0
0
1
0
0
0
0
0
0
0
0
0
0
1
0
0
0
0
0
0
0
0
0
0
0
0
0
0
0
1
0
0
1
0
0
0
0
0
0
0
0
0
0
0
0
0
0
0
0
0
0
0
0
0
0
0
1
0
0
0
0
0
0
0
0
0
0
0
0
0
0
0
0
0
0
0
0
0
0
0
0
0
0
0
0
0
0
0
0
0
0
0
1
0
0
0
0
0
0
0
0
0
0
0
0
0
0
0
0
0
0
0
0
0
0
0
0
0
0
0
0
0
0
0
0
0
0
0
0
0
0
0
0
0
0
0
0
0
0
0
0
0
0
0
0
0
0
0
0
0
0
0
0
0
0
0
0
0
0
0
0
0
0
0
0
0
0
0
0
1
0
0
0
0
0
0
0
0
0
0
0
0
0
0
0
0
0
0
0
0
0
0
0
0
0
0
0
0
0
0
0
0
0
0
0
0
0
0
0
1
0
0
0
0
0
0
0
0
0
0
0
0
1
1
0
0
0
0
0
0
0
0
0
0
0
0
0
0
0
0
0
0
0
0
0
0
0
0
0
0
0
0
0
0
0
0
0
0
0
0
0
0
0
0
0
0
0
0
0
0
0
0
0
0
0
0
0
0
0
0
0
0
0
0
0
0
0
0
0
0
0
0
0
0
0
0
0
0
0
0
0
0
0
0
0
0
0
0
0
0
0
0
0
0
0
0
0
0
0
0
0
0
0
0
0
1
0
1
0
0
0
0
0
0
0
1
1
1
1
0
0
0
0
0
0
0
0
0
0
0
0
0
0
0
0
0
0
0
0
0
0
0
0
0
0
0
0
1
1
0
0
0
0
0
0
0
0
0
0
0
0
0
0
0
0
0
0
1
0
0
0
0
0
0
0
1
1
0
1
1
0
0
1
0
0
0
0
0
0
0
1
0
1
0
0
0
0
0
0
0
0
0
0
0
0
0
0
0
0
0
0
0
0
0
0
0
0
0
0
0
1
1
0
0
0
1
1
0
0
0
0
1
0
0
1
0
1
0
0
0
0
0
1
0
0
0
1
0
0
0
0
0
0
0
0
0
0
0
0
0
0
0
0
0
0
0
0
0
0
0
0
0
0
0
1
0
0
0
0
0
0
1
0
0
0
0
0
0
0
0
0
0
0
0
0
0
0
0
0
0
0
0
0
0
0
0
0
0
0
0
0
1
0
1
0
0
0
0
0
0
0
1
0
0
0
0
0
0
0
0
0
0
0
1
0
0
0
0
0
0
0
0
0
1
0
0
0
0
0
0
0
1
0
0
0
0
0
0
0
1
0
0
0
0
0
0
0
0
0
0
0
0
0
0
0
0
0
0
0
1
0
1
0
0
0
0
0
1
0
0
0
0
0
0
0
0
0
0
0
0
0
0
0
0
0
0
0
0
0
0
0
0
0
1
0
1
0
0
0
0
0
0
0
0
0
1
0
0
0
0
0
1
0
0
0
0
0
0
0
0
0
0
0
0
0
0
0
1
0
0
0
0
0
0
0
0
1
0
0
0
0
0
0
0
0
0
0
0
0
0
0
0
0
0
0
0
0
0
0
0
0
0
0
0
0
0
0
1
0
0
0
0
0
0
0
0
0
0
0
0
0
0
0
0
1
0
0
0
0
0
0
0
0
1
0
0
0
0
0
0
0
0
0
1
0
0
0
0
0
1
0
0
0
0
0
0
0
0
0
0
0
0
0
0
0
0
0
0
0
1
0
0
0
0
0
0
1
0
0
0
0
0
0
0
0
1
0
0
0
0
0
0
0
0
0
0
0
0
0
0
1
0
0
1
0
0
0
1
0
0
0
0
0
0
0
0
0
0
0
0
0
0
0
0
1
0
0
0
0
0
0
0
0
0
0
1
0
1
0
0
0
0
0
0
1
0
0
0
0
0
0
0
0
0
0
0
0
0
0
0
0
0
0
0
0
0
0
0
0
0
0
0
1
1
0
0
0
0
0
0
1
0
0
0
0
0
0
0
0
0
0
0
0
0
1
0
0
0
0
0
0
0
1
0
0
0
0
0
0
0
0
0
0
0
0
0
0
0
0
0
0
0
0
0
0
0
0
0
0
0
1
0
0
0
0
0
0
0
0
0
0
1
0
0
1
0
0
0
0
0
0
0
0
0
0
0
0
0
0
0
0
0
0
0
0
0
0
0
0
0
0
0
0
0
1
0
0
0
0
0
0
0
1
0
0
0
0
0
0
0
1
0
0
0
0
1
0
0
0
0
0
0
0
0
0
0
0
1
0
1
0
0
0
1
0
				</DataArray>
				<DataArray type="Float64" Name="h" NumberOfComponents="1" Format="ascii">
0.9504777233
0.9504853760
0.9557705218
0.9587272529
0.9538500214
0.9588713008
0.9564301393
0.9534057824
0.9583744718
0.9522032059
0.9590735330
0.9585140512
0.9436660134
0.9588818653
0.9530757320
0.9321622177
0.9594494599
0.9489366743
0.9454999474
0.9602080867
0.9528026664
0.9329533318
0.9433077192
0.9530477135
0.9598752258
0.9352079081
0.9164877801
0.9257597692
0.9502440037
0.9570617556
0.9598253587
0.9484024730
0.9248347605
0.9566380601
0.9261918057
0.9502578966
0.9400465596
0.9309119148
0.9192063574
0.9500408915
0.9519950973
0.9258757493
0.9268424957
0.9440965454
0.9490014957
0.9392767679
0.9388387886
0.9109703666
0.7485741744
0.7365833638
0.9479870333
0.9480774765
0.9479646956
0.7864150068
0.9370878422
0.9063473536
0.9410125559
0.8731933192
0.8388493705
0.8275882447
0.8298962223
0.8454995109
0.7552608454
0.9470709465
0.9381697911
0.8636249541
0.7245163170
0.7424261866
0.8391636443
0.8591012822
0.8435092774
0.9326410315
0.9092333592
0.7694725543
0.8051906878
0.8490322286
0.8674323830
0.8115755240
0.8930450983
0.8881218569
0.8148379473
0.8179501117
0.7585291512
0.7295645057
0.8854044028
0.8248082625
0.8091185812
0.7173874146
0.7828842616
0.7515919288
0.7902634681
0.8594069714
0.8073561356
0.7433939342
0.7742168689
0.8208333091
0.7195957992
0.8980006008
0.8954302307
0.8042436982
0.7567551664
0.8195790569
0.7431670819
0.8923291495
0.9491356647
0.7150179316
0.7448423589
0.7533525931
0.8022507834
0.7694929113
0.7383387933
0.7480176558
0.7900089270
0.7726786106
0.7394909589
0.7969200037
0.7474391970
0.9552387626
0.7774458500
0.7477128330
0.9497286578
0.7198103859
0.7855581423
0.9570685133
0.7693536733
0.7603028682
0.7475687300
0.9553247977
0.8075555566
0.7885040460
0.7959104796
0.7376685311
0.7569159200
0.8155112174
0.9555554532
0.7871117383
0.9374216048
0.8078665348
0.8156290823
0.9180257207
0.9543069890
0.9573970662
0.7983065021
0.9059119504
0.7834518755
0.8015104430
0.9275557799
0.7873170497
0.9543649729
0.7916200978
0.9409865115
0.8147450946
0.8086468912
0.8121483542
0.8168312214
0.7966947760
0.8114380924
0.9498780195
0.7992073806
0.9533414772
0.9093174365
0.7966201221
0.9314738345
0.9513325026
0.9520734938
0.7795516770
0.8925910210
0.9222592319
0.9561004736
0.7965686974
0.8142406501
0.9545769780
0.8101026995
0.9472662203
0.8790108618
0.8050190957
0.8945844772
0.7681268670
0.8056585873
0.9513878462
0.7892907820
0.8628243022
0.9533266397
0.7506454146
0.9553315152
0.9536588177
0.8792527214
0.8015300001
0.9550128351
0.9510431875
0.8433041740
0.8079568632
0.9538231211
0.8643813139
0.8031339820
0.7705432175
0.9483172194
0.8137505555
0.8412811865
0.7767463966
0.9511959422
0.7244613116
0.9524191291
0.7956134333
0.7678222168
0.9541720031
0.9164420357
0.9393258506
0.8002827469
0.8829491999
0.8198193469
0.9532404818
0.9523585961
0.9564804952
0.9292081144
0.7892982099
0.9009318152
0.9517276855
0.8430318411
0.9538340739
0.7464208728
0.7406849238
0.8634827092
0.7218699395
0.7051836931
0.7658200892
0.7537699895
0.7011980588
0.7186795536
0.7478346557
0.7807814753
0.7320939475
0.6970623217
0.7697844609
0.7620686284
0.7104007421
0.7959124337
0.9023650761
0.9546109904
0.8575312333
0.7749126491
0.9339820390
0.9552167845
0.8688422993
0.9352825841
0.9079486648
0.9555907523
0.8230930315
0.9199818622
0.9513501265
0.8814688034
0.8044086007
0.9517280332
0.7625313465
0.7406707239
0.9580287060
0.8895247659
0.9231785762
0.9564707732
0.7286066759
0.8316730735
0.6880019195
0.6948640409
0.7175215679
0.6956568093
0.7557081497
0.7553512035
0.7086901973
0.7625219115
0.7369717618
0.7478264973
0.8466182712
0.7446495085
0.7062841147
0.7178189760
0.6894766632
0.6883288198
0.7055612975
0.7284706024
0.7025580612
0.7501125703
0.7573771162
0.7591335192
0.7529768766
0.7433205305
0.7375672457
0.6973716668
0.8878581172
0.9560324017
0.9550158288
0.8911492881
0.7499043495
0.9280507389
0.9281132990
0.8327304380
0.7347487215
0.8397425464
0.9102388345
0.9501216840
0.9580152562
0.9584434808
0.9115841766
0.7810775156
0.7026169603
0.7183520337
0.8615704261
0.7689811173
0.8667250067
0.9504909893
0.6717071835
0.7001994216
0.6889035821
0.7522192087
0.6781541085
0.7460296384
0.7247517526
0.8014952780
0.7413486881
0.7494356750
0.8112118645
0.7149745662
0.6827874738
0.7357339514
0.7488661179
0.6785880791
0.6891607104
0.7018527570
0.7506299168
0.7129185615
0.7343304999
0.7459850581
0.7488584096
0.7494651353
0.6668600252
0.7265996514
0.6806001424
0.7420438269
0.8751892752
0.7527120592
0.8128139226
0.7092861590
0.8141485670
0.9548254625
0.7153420529
0.9233175456
0.8761220741
0.9210940074
0.9545956518
0.7570647157
0.6671291098
0.6800731340
0.7290146651
0.9004575791
0.9478867024
0.7616955119
0.8459466777
0.6940231182
0.7430891376
0.8460466588
0.7536839673
0.7500208508
0.7550552332
0.9584270397
0.7478695109
0.6858107561
0.9022513490
0.6448493684
0.6606400789
0.6966799902
0.9582108150
0.7249677520
0.7637838073
0.9489204723
0.7476538303
0.7222443896
0.7140024422
0.7465736520
0.9881262993
0.7470134161
0.6596842049
0.6581181424
0.7404114898
0.7466355629
0.7782629461
0.7364358546
0.7810249838
0.6706354167
0.6946413934
0.6834842691
0.8348018764
0.7459371267
0.6521080312
0.7090753299
0.6530691020
0.7485244872
0.7266825545
0.9994416488
0.9371994911
0.9058567350
0.7219952849
0.6701550347
0.7451164237
0.7598167934
0.7328415707
0.6859440919
0.7462026975
0.7431305507
0.6629032204
0.6808035298
0.7979988946
0.6990401215
0.6542572082
0.7354897409
0.6781760129
0.8634855208
0.7559639867
0.7496372089
0.7959455223
0.7414921885
0.6609570072
0.6364828499
0.6444622645
0.9163785044
0.7552199067
0.7595230327
0.7077782697
0.7483047044
0.9540389158
0.7596704467
0.6951003961
0.6808399184
0.7660552205
0.7398071860
0.7648829315
0.7087922880
0.7132763264
0.7919223517
0.7442766059
0.7507010935
0.6217302080
0.6911394468
0.7627616671
0.8924159647
0.7820041818
0.6528327742
0.8309264982
0.6745943521
0.7345218221
0.7231471203
0.7733920254
0.7558364371
0.7460374519
0.9581924704
0.6512148461
0.7266483407
0.6444657642
0.7731821515
0.7757466709
0.7273226816
0.7811595624
0.9468678036
0.6686110454
0.8587946610
0.7448863503
0.7609106823
0.7214200268
0.6906815156
0.6622975841
0.6921256707
0.9169881982
0.7475072958
0.7874383307
0.7413317749
0.7165105497
0.6486500276
0.6908053324
0.7927478824
0.8126274293
0.9561218770
0.9899548813
0.9819662723
0.6634436082
0.8904547352
0.7459359627
0.8289606120
0.8063244741
0.7464175583
0.9639634348
0.7068973265
0.9434144882
0.6937114675
0.6533720402
0.7984599544
0.9496375436
0.9994452460
0.8713660871
0.8241238764
0.8163517936
0.7330472225
0.9883997728
0.8181735002
0.8102191318
0.8530339443
0.9058682158
0.7220111547
0.7514930181
0.6752396407
0.9582915932
0.6493225546
0.7651769262
0.9639580413
0.6866962797
0.7861452175
0.7874700314
0.6065005346
0.9561012021
0.7750909511
0.6507172110
0.9608056136
0.7984066634
0.6867152395
0.7135715773
0.6965263132
0.7529101096
0.8715634020
0.7910840661
1.0091472890
0.7508033798
0.6266805060
0.6942781073
0.7669180926
0.8588118179
0.7417861154
0.9287114340
0.9169896639
0.7241239919
0.9496172720
0.8241483275
0.9582732791
0.6266882658
0.6634505451
0.7675270230
0.9232199054
0.9616356492
0.8518271479
0.8355377124
1.0061843025
0.7165392601
0.8106114752
0.9515693052
0.7756912541
0.8897698326
0.9030220287
0.6425456832
0.9569624395
0.6089629085
0.6672097544
0.9741730356
0.7761048007
0.7730722622
0.7265240860
0.9914199873
0.7757727482
0.8904659736
0.6818790736
0.7443093743
0.7515264644
0.6906766586
0.7917354808
0.7461107005
0.7616658661
0.7527739501
0.8051143184
0.7729140293
0.6609354420
0.9727526137
0.6459292814
0.6157281555
0.7861577330
0.7273775670
0.8390768655
0.7231693734
0.8181839909
1.0126427879
0.6880185957
0.9396141191
0.7507528714
0.7355212925
0.6745789614
0.9979335198
0.7483737440
0.7329084526
0.8887785778
0.6804119815
0.9758239193
0.6512027940
0.6929966945
0.9704171545
0.8015561326
0.7717195065
0.6568658536
0.7641872184
0.8002955953
0.8754436479
0.7077863263
0.9366020618
0.8132708251
0.8213677774
0.7496660950
1.0184595590
0.8576428842
0.9595227723
0.8230014401
1.0115151578
0.6157268680
0.9101969406
0.8026889827
0.9287136194
0.7616965505
0.6942975966
0.8715767483
0.7682354260
0.5902893384
0.9699528396
0.9607886852
0.8015374834
1.0253280686
0.8540671279
0.9569460020
0.9691645520
0.8132758594
1.0152858245
0.9362268050
0.6672163255
0.7984331127
0.7265526463
0.9030321598
0.8504707316
0.8478253207
0.8336639313
0.7694639537
0.9616195141
0.8573517053
0.7679643659
0.7188369074
0.7940327105
0.8196516737
0.6425513368
0.8992925530
0.8167159067
1.0367890433
0.8276131019
0.9766477883
0.9313606007
1.0445806117
0.7534937731
0.6863282725
0.8355564387
0.8391211850
0.8643975856
0.9745725603
0.9557132480
0.8192545205
0.8550419335
0.8392392036
0.8240352055
1.0277229411
0.7903169841
0.9706076097
0.8992936072
0.8234844092
0.8235919997
0.7241378053
0.8986899549
0.7681540672
0.9960101929
0.8570710421
1.0046306404
0.9784590495
0.8502524572
0.8603274028
0.8177115926
0.8638619243
0.8695328316
0.9072264746
0.9371396995
1.0248259660
0.8708572079
0.8518687938
0.8675026801
0.9423185232
0.9704214254
1.0294548797
1.0183615359
1.0026211774
0.8720711996
0.8744069810
0.8443061623
0.8622106798
1.0407454888
0.8717051688
0.8632970385
1.0247511402
0.8478150326
0.8465047193
1.0184643792
0.8622724860
0.8897843502
0.8521404652
0.9850219147
0.9648060145
0.8630521371
1.0115182464
0.8614744757
0.8378522116
0.9914263233
0.8313271627
1.0052261072
1.0128846351
0.8328087772
0.8140473084
1.0044220416
0.9508828989
0.9542947215
0.9542986746
0.9508716463
0.9596049399
0.9585271158
0.9590806720
0.9573906993
0.9546040500
0.9588757146
0.9538528878
0.9546105451
0.9583649507
0.9530745201
0.9564320336
0.9562792093
0.9573917025
0.9595964576
0.9494579036
0.9489267943
0.9587216638
0.9557607946
0.9455093071
0.9570642120
0.9394841061
0.9581800235
0.9534026542
0.9351902438
0.9598822286
0.9522114943
0.9395647872
0.9436809047
0.9562074232
0.9260771303
0.9406111371
0.9562798284
0.9598295739
0.9494721522
0.9566552288
0.9248132898
0.9484122724
0.9162124116
0.9500454865
0.9170245704
0.9594396279
0.9321868413
0.9268677342
0.9189660711
0.9581666534
0.9395076772
0.9519833765
0.9588777447
0.9602008471
0.9561963437
0.9432765808
0.9018491791
0.9329649596
0.9468933771
0.9395771545
0.9527858544
0.9406075305
0.9339984868
0.9014227710
0.9109742602
0.9261071480
0.9489890636
0.9480059068
0.9388792158
0.9259892082
0.9530494248
0.9502497142
0.9408872807
0.9194336987
0.9164882278
0.9357986763
0.9443311893
0.9171298376
0.9218160935
0.9207983685
0.9162354144
0.9479447808
0.9018238058
0.7423151367
0.7504432071
0.9339784459
0.9468890973
0.9407619858
0.9016229296
0.9502776980
0.9381454099
0.9308506579
0.9118880802
0.9261913053
0.7553014721
0.7424223413
0.8991546766
0.9400327000
0.9470394037
0.9218028330
0.8805507667
0.8588616236
0.9440854513
0.7695705392
0.8248542259
0.9326399249
0.9092488611
0.8586926250
0.9009049055
0.9297169686
0.9357972228
0.8331792024
0.9207946504
0.9259226324
0.8674619334
0.8435582483
0.7781156247
0.8052981814
0.9194613587
0.9231220006
0.8391818533
0.9316687467
0.9443500585
0.8590990551
0.9407717380
0.9118673481
0.8653643040
0.8992521397
0.7371992284
0.8898565564
0.7308714047
0.7485400138
0.9481280296
0.7504184234
0.9394173955
0.8177764682
0.7295375535
0.8612008675
0.7423200670
0.7366061266
0.8298766120
0.8454997888
0.9230611277
0.8178250806
0.7779851514
0.8387751303
0.8611461008
0.8247586366
0.8616067977
0.8973685189
0.8805161055
0.9316582227
0.8946611124
0.9371027248
0.8329458376
0.8586814487
0.8331758645
0.9063459134
0.8156362856
0.8122010326
0.9009460537
0.7863230476
0.8587900580
0.8274763758
0.8591228492
0.8731827988
0.9296991796
0.8074078251
0.7371875484
0.8923271568
0.8951178608
0.8611878812
0.8851876979
0.8897970367
0.8195995148
0.7204986289
0.8008169619
0.7261040594
0.8639310686
0.7568357582
0.7245613089
0.9092030478
0.8978508312
0.8251612456
0.8204546514
0.8591204940
0.7309342448
0.8042907005
0.7149765040
0.8657114196
0.7641541007
0.8157082682
0.8023332426
0.7480522504
0.8178002091
0.8120993364
0.7900705485
0.8946032074
0.8492709491
0.7339800317
0.8610613952
0.8115187252
0.8973631051
0.7971189830
0.8617710267
0.7383114514
0.7692789348
0.8329023692
0.8007654119
0.7640581797
0.7815420331
0.8251479133
0.8251205010
0.7197555926
0.7725961448
0.9092006493
0.9471836490
0.8590576186
0.7261113046
0.8855527061
0.8883894580
0.8090848771
0.7584421342
0.8148070297
0.7474256966
0.8930365339
0.7205540434
0.9497248075
0.7174361177
0.8852569405
0.7970690354
0.7374866874
0.7277613287
0.9406925437
0.7603803864
0.7810587812
0.7813687014
0.7827869302
0.7744685809
0.7433992371
0.7797628082
0.7515401670
0.7901976008
0.7684386312
0.8759318079
0.7694147530
0.7476285792
0.7340579899
0.7885860184
0.7432513325
0.7708701591
0.7239216617
0.7815244175
0.9471934990
0.7724937038
0.7635942355
0.9555561885
0.7871822543
0.7569944119
0.9491430285
0.7196762022
0.7831743766
0.7169110507
0.9573984729
0.7598876785
0.9407034963
0.7796763093
0.7726122029
0.7532989615
0.9388835762
0.8759343605
0.7813051782
0.7394777025
0.9543648646
0.7278524959
0.7983693388
0.9561741183
0.7968465267
0.7809852904
0.8015637126
0.7683673738
0.7450146954
0.9566753049
0.8156146295
0.7133285570
0.8143285262
0.7707825337
0.7635376907
0.9431825393
0.8098659066
0.7633178514
0.8110170441
0.7476632311
0.7240424979
0.8147853394
0.9552381019
0.8075517241
0.7773707211
0.9577359822
0.9409947018
0.8086998323
0.8168635263
0.9388999306
0.9561737817
0.9222443301
0.9520717241
0.7598402652
0.8005467650
0.9566729167
0.9539620827
0.7837140731
0.7088367102
0.7169709472
0.9570668803
0.8075098961
0.9092933494
0.9542630005
0.7857861818
0.7958538062
0.9587275637
0.9314698637
0.8098482391
0.7966858403
0.9553238763
0.7992605544
0.8109774345
0.9374349960
0.8154684451
0.8063175970
0.7054062194
0.7632270171
0.8023872412
0.8078094300
0.8101453429
0.9596854687
0.9459719980
0.8155915411
0.9577330797
0.7135525279
0.9431714836
0.8142854505
0.8158411912
0.8075117577
0.7966358254
0.8152717044
0.8098165144
0.8142808178
0.9472687394
0.7915678769
0.9533285572
0.7057995328
0.9542647125
0.9539618567
0.7719314204
0.8068956871
0.8044220682
0.9059384724
0.7872505940
0.9275688984
0.9513915570
0.7836642118
0.9587256203
0.7088761477
0.9529013110
0.9543062867
0.7893758011
0.8098049375
0.8945592237
0.8152184560
0.9180516630
0.8004936906
0.9538945721
0.9550123604
0.7966214339
0.8113969284
0.9459639307
0.7062427839
0.8062643520
0.9584456616
0.9596827637
0.7054839726
0.9553312416
0.8023139304
0.8121072711
0.9498753719
0.8152307640
0.8791975477
0.7196364080
0.8031767116
0.8926199970
0.9538947696
0.7718378178
0.7706164852
0.9528958364
0.8043786710
0.8151769634
0.7785405176
0.9542439518
0.8068451331
0.7058668731
0.9544826502
0.8079923627
0.8151678022
0.9513300717
0.7794654141
0.8642663314
0.7761265526
0.9533411864
0.7243525284
0.7975674589
0.9545772492
0.9524175562
0.8790434815
0.7956594943
0.7063009956
0.9561002650
0.9511936179
0.9584434882
0.8411095490
0.7917741096
0.8056202262
0.9507128805
0.9542446023
0.9544827184
0.9532397443
0.7761041507
0.7784638921
0.9520995638
0.7630064565
0.8628909233
0.8151272314
0.8049793041
0.7197469061
0.9526111270
0.9523456922
0.7680775555
0.9523711572
0.8000839905
0.8434291303
0.7807857361
0.7975249663
0.9510449268
0.7917234654
0.7882124840
0.7845289156
0.7508212171
0.9536603055
0.8014857054
0.7462681483
0.9556039210
0.9079399828
0.9478194272
0.9353013941
0.8139137283
0.9523457521
0.7494266110
0.9534561520
0.8687996406
0.9466451197
0.9507030556
0.7957970153
0.9538221668
0.9537633684
0.7629235821
0.9483047962
0.9554035237
0.9231841258
0.9449655825
0.7624279812
0.8895004124
0.9517486124
0.8229921859
0.9526099839
0.9546162020
0.9520919910
0.7726125155
0.7231756917
0.7679700747
0.7881690572
0.7374983360
0.8465488158
0.7844797309
0.7176438216
0.7024948761
0.7591920681
0.7501435745
0.7578617765
0.6973077439
0.7086306692
0.7446406549
0.7767135583
0.7284696956
0.6956261601
0.7625351201
0.7527419556
0.7557503585
0.7061397154
0.8199522809
0.8911410790
0.9444155303
0.9538286564
0.8396897436
0.7498343144
0.9466221967
0.7495412535
0.9478033978
0.9545691573
0.7054969105
0.9281364813
0.9560502656
0.9534537177
0.8829890141
0.9393097345
0.9164527361
0.9541608064
0.8431319474
0.9115943750
0.9505174991
0.9537600416
0.8666965436
0.7809914951
0.9517104606
0.7894401130
0.7183129893
0.9408043893
0.9568887270
0.9009578710
0.9449421060
0.9292054781
0.9553957816
0.7321858367
0.8111349252
0.6877403032
0.6806028504
0.6891342067
0.7127654621
0.6971075029
0.7526963867
0.7620207822
0.7506280139
0.7187777559
0.7697736813
0.7507112035
0.7342235736
0.7459667509
0.8635468011
0.7726173073
0.7478140136
0.7105642663
0.7220136757
0.6781723439
0.6827880048
0.7001050494
0.7245961343
0.7052535418
0.7537116939
0.7577993915
0.7522435171
0.7232387348
0.7657963357
0.7488659685
0.7412948471
0.7485836972
0.7407159608
0.7012800026
0.8751787778
0.9412865055
0.9552009303
0.9545613825
0.9548474461
0.9023702954
0.7750130394
0.6751689439
0.9211135271
0.7055271095
0.9339603655
0.8141009957
0.7153079357
0.8575755344
0.9443874825
0.9004634321
0.9479160733
0.9568769077
0.9576888243
0.9199721220
0.8045051990
0.6858069567
0.9369096165
0.7407452323
0.9407745373
0.8460183759
0.7478137841
0.8814926820
0.9513258853
0.6629400781
0.7056694479
0.6808157656
0.7573796310
0.6894908218
0.7450735045
0.7285980027
0.7809642863
0.7433545118
0.7485841320
0.7480956075
0.7461737124
0.6634865851
0.8317445466
0.7089792166
0.6883519971
0.7327361112
0.7529646381
0.6706671069
0.6949161823
0.6946039711
0.7553091677
0.6877355957
0.7472971252
0.7176654206
0.7370511335
0.7478261629
0.7465380822
0.7466160756
0.6581514252
0.7221187759
0.6880288594
0.7403434750
0.7506926163
0.7559173708
0.6808547884
0.6589184144
0.7414767590
0.8878632346
0.9412576285
0.7528278953
0.7636171298
0.7959065290
0.6770590266
0.6950789615
0.8327707304
0.7425234479
0.7551925052
0.7582936970
0.9549963045
0.7348075635
0.6751637488
0.9163875014
0.8634706886
0.9280296455
0.6542521620
0.6434711146
0.7132725476
0.9540619807
0.7100224557
0.7603846170
0.9388705268
0.7564736952
0.6677897770
0.6686085778
0.7338333059
0.9102297125
0.9500943838
0.7495033228
0.7633289447
0.8308999855
0.6923630553
0.7266109489
0.8615910132
0.7518046282
0.7519412224
0.7528538502
0.9576740386
0.7690519537
0.7026444034
0.9346130902
0.8924118907
0.9368812630
0.6473470598
0.6575961227
0.7013788397
0.9577184301
0.7274206101
0.7633862789
0.9468939861
0.8077008260
0.7458774310
0.6525116486
0.7267188493
0.6841625443
0.7486501349
0.7068605650
0.7488749047
0.9899565422
0.9991076027
0.9157098835
0.7463755223
0.9434015262
0.7647371641
0.6534027765
0.7473303881
0.6668263219
0.7288493900
0.7421014495
0.6610934130
0.7494753827
0.7608669295
0.7329770673
0.8015563093
0.6785811070
0.7019196298
0.8441163086
0.6752629118
0.8530213458
0.7448330026
0.6486682190
0.7150838526
0.6568529633
0.7474520874
0.7213547102
0.7481181895
0.9889291512
0.9951641736
0.9511745519
0.7486332357
0.9218651202
0.7309047724
0.6623302633
0.7460652730
0.6634638786
0.7717030101
0.7358238818
0.6921097762
0.7494506312
0.7412782106
0.6716846255
0.6889246638
0.8126126682
0.6908047905
0.6558236213
0.7874111862
0.7393718619
0.7515507614
0.6507165096
0.6770695124
0.7135666995
0.7432774346
0.8761313775
0.7553652448
0.7720755260
0.7501858973
0.7553172284
0.6125885691
0.8128484283
0.7449977048
0.6661433004
0.6434738089
0.6840967755
0.6458225569
0.7023363604
0.9233036825
0.7555227968
0.7583456059
0.7148255712
0.7760841622
0.7449738265
0.7669045486
0.7490439538
0.9545745002
0.6476848600
0.7604060253
0.7093226606
0.6448488683
0.6364810777
0.7756548295
0.7730390404
0.6840794830
0.7417689180
0.7682295674
0.7425381960
0.7636484341
0.7854908187
0.9388463911
0.6589113951
0.7100250815
0.7188439379
0.7594711165
0.6671345656
0.7879724092
0.7463044176
0.7596538841
0.7508934903
0.6312515245
0.6606481498
0.6898590557
0.7585818683
0.9022498916
0.7528873072
0.7849519022
0.7519803213
0.6340304593
0.8459665337
0.7500411056
0.6812203537
0.6379128564
0.6379065059
0.7261575961
0.9345921768
0.7573238170
0.7617396672
0.7290234011
0.7722037666
0.7553677232
0.7458587851
0.9577017738
0.6535182795
0.7088004785
0.7537037736
0.7431391324
0.6458253454
0.7681946193
0.7731841128
0.6966812762
0.7244148831
0.7632327438
0.7274322877
0.7634153789
0.7854730250
0.9488940921
0.6800868059
0.6923480289
0.7290257267
0.8704163207
0.7459662497
0.8229888682
0.8002728126
0.7486767116
0.7783111818
0.9819663963
0.7267658965
0.9218775108
0.7527701199
0.6981633802
0.6701238553
0.6859587654
0.8015317190
0.9397598907
0.9991094507
0.9228042678
0.7485705579
0.8802931419
0.8009075777
0.8166983853
0.7431832555
0.9757609327
0.7978695302
0.8102637747
0.8077161308
0.9372103190
0.6928687601
0.6928823664
0.7294214948
0.6520749948
0.6990710234
0.7878343360
0.7980131790
0.7239289080
0.9554608546
0.9881223424
0.6459382709
0.7106423888
0.9928040285
0.9686942864
0.6703940884
0.9980196243
0.7967023746
0.8993535952
0.7476949076
0.8213532401
0.8002836230
0.7470566002
0.9702994239
0.7140684595
0.9511860923
0.7096763291
0.6596436841
0.7239461311
0.7940050588
0.9501482434
0.9951655697
0.9369401467
0.7486952273
0.8887667356
0.8376792120
0.8092939715
0.7365072609
0.9928064904
0.8107416376
0.8044570000
0.8348144954
0.9157204614
0.7309217058
0.8450775904
0.7648796333
0.6525037928
0.6834777378
0.7841207611
0.8441297576
0.9585007457
0.9889270322
0.9458475142
0.6521121444
0.7667170760
0.9836999952
0.9757546778
0.6972882380
0.7788407693
0.6913054075
0.9397432227
0.8009386033
0.6125900046
0.9554403891
0.7720891848
0.6217336332
0.6521089264
0.8130398987
0.6617922478
0.9604084250
0.9638699494
0.8967096279
0.7702810168
0.7859476420
0.7078699277
1.0054968419
0.6973145255
0.7746593678
0.7078665714
0.7013794875
0.7023385397
0.9296207908
0.7557221606
0.7495770992
0.6064983672
0.6473496296
0.7703168590
0.8589725597
0.8605363389
0.7874279061
0.7519722115
0.6206632138
1.0021487556
0.6558235984
0.9468557343
0.7432837073
0.7249831310
0.6260467642
0.6409757807
0.7648518901
0.6498622570
0.9965849805
0.7527800781
0.7897982934
0.6576015954
0.7663279754
0.7793322351
0.6860231403
0.9793592557
0.7663423518
0.7741673975
0.8704292587
0.7234463602
0.7408299176
0.9237630715
0.9227999457
0.7638048301
0.7325548027
0.9501259590
0.8376989740
0.6150776928
0.9584834572
0.7586008740
0.6260544280
0.7507999536
0.6704036565
0.7761897221
0.6911432665
0.9378570899
0.9632091043
0.8638493031
0.8241133341
1.0095330507
0.7294589281
0.8206283259
0.6781647117
0.7273179440
0.6528322369
0.9647957156
0.7551070993
0.7910687711
0.7682690207
0.9032880996
0.8944756765
0.7820190644
0.6522622045
1.0098339457
0.9586846732
0.7261566477
0.7792990359
0.6150725980
0.6186818121
0.6614008709
0.9850142493
0.7879935836
0.7811908919
0.7159726390
1.0009563904
0.7734078085
0.7855158223
0.8993604949
0.6909179572
0.7558513498
0.9457639382
0.9369282711
0.7463416304
0.7649183292