<VTKFile type="UnstructuredGrid" version="0.1">
	<UnstructuredGrid>
		<Piece NumberOfPoints="1862" NumberOfCells="3498">
			<CellData>
				<DataArray type="Int32" Name="type" NumberOfComponents="1" Format="ascii">
0
0
0
0
0
0
0
0
0
0
0
0
0
0
0
0
1
0
0
1
0
0
0
0
0
0
0
0
0
0
0
0
0
1
0
0
0
0
0
0
0
0
0
0
0
0
0
0
0
0
1
0
0
0
0
0
0
0
0
0
0
1
0
0
0
0
0
0
0
0
0
0
0
0
0
0
0
0
0
0
0
0
0
0
0
0
0
0
0
0
0
0
0
0
0
0
0
0
0
0
0
0
0
0
0
0
0
0
0
0
0
0
0
0
0
0
0
0
0
0
0
0
0
1
0
0
0
0
0
0
0
0
0
0
0
0
0
0
0
0
0
0
0
0
0
0
0
0
0
0
0
1
0
1
1
0
0
0
0
0
0
0
0
0
0
0
0
0
1
0
1
0
0
0
0
1
0
0
0
0
0
0
0
0
1
1
0
0
0
0
0
1
0
0
0
0
0
0
0
0
1
0
0
0
0
0
0
0
0
0
0
0
0
0
0
0
0
0
0
0
0
0
0
0
0
0
0
0
0
0
0
0
0
1
0
0
0
0
0
0
0
0
0
0
0
0
0
0
0
0
0
0
0
0
0
0
0
0
0
0
0
0
0
0
0
0
0
0
0
0
0
0
0
0
0
0
0
0
0
0
0
1
0
0
0
0
0
0
0
0
0
0
0
0
0
0
0
0
0
0
0
0
0
0
0
0
0
0
0
0
0
0
0
0
0
0
0
0
0
0
0
0
0
0
0
0
0
0
0
0
0
0
1
0
0
0
0
0
0
0
0
0
0
0
0
0
0
0
0
0
0
0
0
0
0
0
0
0
0
0
0
0
0
0
0
0
0
0
0
0
0
0
0
0
0
0
0
0
0
0
0
0
0
0
0
0
0
0
0
0
1
0
0
0
0
0
0
0
0
0
0
0
0
0
0
0
0
0
0
0
0
0
0
0
0
0
0
0
0
0
0
0
0
0
0
0
0
0
0
0
0
0
0
0
0
0
0
0
0
0
0
0
0
0
0
0
0
0
0
0
0
0
0
0
0
0
0
0
0
0
0
0
0
0
0
0
0
0
0
0
0
0
0
0
0
0
0
0
0
0
0
0
0
0
0
0
0
0
0
0
0
0
0
0
0
0
0
0
0
0
0
0
0
0
0
0
0
0
0
0
0
0
0
0
0
0
0
0
0
0
0
0
0
1
0
0
0
0
0
0
0
0
0
0
0
0
0
0
0
0
0
0
0
1
0
0
0
0
0
0
0
0
0
0
0
0
0
0
0
0
0
0
0
0
0
0
0
0
0
0
0
0
0
0
0
0
0
0
0
0
0
0
0
0
0
0
0
0
0
0
0
0
0
0
0
0
0
1
0
0
0
0
0
0
0
0
0
0
0
0
0
0
0
0
0
0
0
0
0
0
0
1
0
0
0
0
0
0
0
0
0
0
0
0
0
0
0
0
0
0
0
1
0
0
0
1
0
0
0
0
0
0
0
0
0
0
0
0
0
0
0
0
0
0
0
0
0
0
0
0
0
1
0
0
0
0
0
0
0
1
0
0
0
0
0
0
0
0
0
0
0
0
0
0
0
0
0
0
0
0
0
0
0
0
0
0
1
0
0
0
0
0
0
0
1
0
0
0
0
0
0
1
0
0
0
0
0
0
0
0
0
0
0
0
0
0
0
0
0
0
0
0
0
0
0
0
0
0
0
0
0
0
0
0
0
0
0
0
0
0
1
0
0
0
0
0
1
0
0
0
0
0
0
0
1
0
0
0
0
0
0
0
0
0
0
0
0
0
1
0
0
0
0
0
0
0
0
0
0
0
0
0
0
0
0
0
0
0
0
0
0
0
0
0
0
0
0
0
0
0
0
0
0
0
0
0
0
0
0
0
0
0
0
0
0
0
0
0
0
0
0
0
1
0
0
0
0
0
0
0
0
0
0
0
0
0
0
0
0
0
0
0
1
0
0
0
0
0
0
0
0
0
1
0
0
0
0
0
0
0
0
0
0
0
0
0
0
0
0
0
0
0
0
0
0
0
0
0
0
0
0
0
1
0
1
0
0
0
0
0
0
0
0
0
0
0
0
0
0
0
0
0
0
0
0
0
0
0
0
0
0
0
1
0
0
0
1
0
0
0
0
0
0
0
0
0
0
0
0
0
0
0
0
0
0
0
0
0
0
0
0
0
0
0
0
1
0
0
0
0
0
0
0
0
0
0
0
0
0
0
0
0
0
0
0
0
0
0
0
0
0
1
0
0
0
0
0
0
0
0
0
0
0
0
0
0
0
0
0
0
0
0
0
0
0
1
0
0
0
0
0
0
1
0
0
0
0
0
0
0
0
0
0
0
1
0
0
0
0
0
0
0
0
0
0
0
0
0
0
0
0
0
0
0
0
1
0
0
0
0
0
0
0
0
0
0
0
1
0
0
0
0
0
0
0
0
0
0
0
0
0
0
0
0
0
0
0
0
0
1
0
0
0
0
0
0
0
0
0
1
1
0
1
0
1
0
0
0
0
0
0
0
0
0
0
0
1
0
0
0
0
0
1
1
0
0
0
0
0
0
1
0
0
0
0
0
1
1
1
0
0
0
0
0
0
0
0
0
0
0
0
1
1
0
0
1
0
0
0
0
0
1
0
0
0
1
0
1
0
0
0
0
0
0
0
1
0
0
0
0
0
0
0
1
0
0
1
0
0
0
0
0
0
0
0
0
0
0
0
0
0
0
1
0
0
0
0
0
0
0
0
0
0
0
0
0
0
0
0
0
0
0
0
0
0
0
0
0
0
0
0
0
0
0
0
0
0
0
0
1
0
0
0
0
0
0
1
0
0
0
1
0
0
0
0
0
0
0
0
0
0
0
1
0
0
0
0
0
0
0
0
0
0
0
0
0
0
0
0
0
0
0
0
0
0
0
0
0
0
0
0
0
0
0
0
0
0
0
0
0
0
0
0
1
1
0
0
0
0
0
0
0
0
0
0
0
0
0
1
0
0
0
0
0
0
0
0
0
0
0
0
0
0
0
0
0
0
0
0
0
0
0
0
0
0
0
0
0
0
0
0
0
0
0
0
0
0
0
0
0
0
0
0
0
0
0
0
0
0
0
0
0
0
0
0
0
0
0
0
0
0
0
0
0
0
0
0
0
0
0
0
1
1
0
0
0
0
0
0
0
0
1
0
0
0
0
0
0
0
0
0
0
0
0
0
0
0
0
0
0
0
0
0
0
0
1
0
0
0
0
0
0
0
0
0
0
0
0
0
0
0
0
1
0
0
0
0
0
0
0
0
0
0
0
0
0
0
0
0
0
0
0
0
0
0
0
0
0
0
0
0
0
0
0
0
0
0
0
0
0
0
0
0
0
0
0
0
0
0
0
0
0
0
0
0
0
0
0
0
0
0
0
0
0
0
0
0
0
0
0
0
0
0
0
0
0
0
0
0
0
0
0
0
0
0
0
0
0
0
0
0
0
0
1
1
0
0
0
0
0
1
0
0
0
0
0
0
0
0
0
0
0
0
1
0
0
0
0
0
0
0
0
0
0
0
0
0
0
0
0
0
0
0
0
0
0
0
0
0
0
0
0
0
0
0
0
0
0
0
0
0
0
0
0
0
0
0
0
0
0
0
0
0
0
0
0
0
1
0
1
0
0
0
0
0
0
0
0
0
0
0
0
0
0
0
0
0
0
1
0
0
0
0
0
0
0
0
0
0
0
0
0
0
0
0
0
0
0
0
0
0
0
0
0
0
0
0
0
0
0
0
0
0
0
0
0
0
0
0
0
0
0
0
0
0
0
0
0
0
0
0
0
0
0
0
0
0
0
0
0
0
0
0
0
0
0
0
0
0
1
0
0
0
0
0
0
0
0
0
0
1
0
0
0
0
0
0
0
0
0
0
0
0
0
0
0
0
0
0
0
0
0
0
0
0
0
0
0
0
0
0
0
0
0
0
0
0
0
1
0
0
0
0
0
0
0
0
0
0
0
0
0
0
0
0
0
0
0
0
0
0
0
0
0
0
0
0
0
0
0
0
0
0
0
0
0
0
0
0
0
0
0
0
0
0
0
0
0
0
0
0
0
0
0
0
0
0
0
0
0
0
0
0
0
0
0
0
0
0
0
0
0
0
0
0
0
0
0
0
0
1
0
0
0
0
0
0
0
0
0
0
0
0
0
0
0
0
0
0
0
0
0
0
0
0
0
0
0
0
0
0
0
0
0
0
0
0
0
0
0
0
0
0
0
0
0
0
0
0
0
0
0
0
0
0
0
0
0
0
0
0
0
0
0
0
0
0
0
0
0
0
0
0
0
0
0
0
0
0
0
0
0
0
0
0
0
0
0
0
0
0
0
0
0
0
0
0
0
0
0
0
0
0
0
0
0
0
0
0
0
0
0
0
0
0
0
0
0
0
0
0
0
0
0
1
0
0
0
0
0
0
0
0
0
0
0
0
0
0
0
0
0
0
0
0
0
0
0
0
0
0
0
0
0
0
0
0
0
0
0
0
0
0
0
0
0
0
0
0
0
0
0
0
0
0
0
0
0
0
0
0
0
0
0
0
0
0
0
0
0
0
0
0
0
0
0
0
0
0
0
0
0
0
0
0
0
1
0
0
0
0
0
0
0
1
0
0
0
0
0
0
0
0
0
0
0
0
0
0
0
0
0
0
0
0
0
0
0
0
0
0
0
0
0
0
0
0
0
0
0
0
0
1
0
0
0
0
0
0
0
0
0
0
0
0
0
0
0
0
0
0
0
0
0
1
0
0
0
0
0
0
0
0
0
0
0
0
1
1
0
0
0
0
0
0
0
0
0
0
0
0
0
0
0
1
1
0
1
0
0
0
0
0
0
0
0
0
1
0
0
0
0
0
0
1
0
0
0
0
0
0
0
0
0
0
1
0
0
0
0
1
0
1
0
0
0
0
0
0
0
1
0
0
0
1
0
0
0
1
0
1
1
0
0
1
1
0
0
0
1
0
0
0
1
0
0
0
0
0
0
0
0
0
1
0
0
0
0
0
0
1
0
0
0
0
0
0
0
0
0
0
0
0
0
0
0
0
0
0
0
0
0
0
0
0
0
0
0
1
0
0
1
0
0
0
0
0
0
0
0
0
0
0
0
0
0
0
0
0
0
1
0
0
1
0
0
0
0
0
0
0
0
0
0
0
1
0
0
1
0
0
0
0
0
0
0
0
0
0
0
1
1
0
0
0
0
0
0
0
0
0
0
0
0
1
0
0
0
0
0
0
0
0
0
0
0
0
0
0
0
0
0
1
0
0
0
0
0
0
0
0
0
0
0
0
0
0
0
0
0
1
0
0
0
0
0
0
0
0
0
0
0
0
0
0
0
0
0
0
0
0
0
0
0
0
0
0
0
0
0
0
0
0
0
0
0
0
0
0
0
0
1
0
0
0
0
0
0
0
0
0
0
0
0
0
0
0
0
0
0
0
0
0
0
0
0
0
0
0
0
0
0
0
0
0
0
0
0
0
0
0
0
0
0
0
0
0
1
0
0
0
0
0
0
0
0
0
0
0
0
0
0
0
0
0
0
0
0
0
0
0
0
0
0
0
0
0
0
0
0
0
0
0
0
0
0
0
0
0
0
0
0
0
0
0
1
0
0
0
0
0
0
0
0
0
0
1
0
0
0
0
0
0
0
0
0
0
0
0
0
0
0
1
0
0
1
0
0
0
0
0
0
0
0
0
0
0
0
0
0
0
0
0
0
0
0
0
0
0
1
0
0
0
0
0
0
0
0
0
0
0
0
0
0
0
0
0
0
0
0
0
0
0
0
0
0
0
0
0
0
0
0
0
0
0
1
0
0
0
0
0
0
0
0
0
0
0
0
0
0
0
0
0
0
0
0
0
0
0
0
0
0
0
0
0
0
0
0
0
0
0
0
0
0
0
0
0
0
0
0
0
0
0
0
0
0
0
0
0
0
0
0
0
0
0
0
0
0
0
0
0
0
0
0
0
0
0
0
0
0
0
0
1
0
0
0
0
0
0
0
0
0
0
0
0
0
0
0
0
0
0
0
0
0
0
0
0
0
0
0
0
0
0
0
0
0
0
0
0
0
0
0
1
0
0
0
0
0
0
0
0
0
0
0
0
1
1
0
0
0
0
0
0
0
0
0
0
0
0
0
0
0
0
0
0
0
0
0
0
0
0
0
0
0
0
0
0
0
0
0
0
0
0
0
0
0
0
0
0
0
0
0
0
0
0
0
0
0
0
0
0
0
0
0
0
0
0
0
0
0
0
0
0
0
0
0
0
0
0
0
0
0
0
0
0
0
0
0
0
0
0
0
0
0
0
0
0
0
0
0
0
0
0
0
0
0
0
0
1
0
1
0
0
0
0
0
0
0
1
1
1
1
0
0
0
0
0
0
0
0
0
0
0
0
0
0
0
0
0
0
0
0
0
0
0
0
0
0
0
0
1
1
0
0
0
0
0
0
0
0
0
0
0
0
0
0
0
0
0
0
1
0
0
0
0
0
0
0
1
1
0
1
1
0
0
1
0
0
0
0
0
0
0
1
0
1
0
0
0
0
0
0
0
0
0
0
0
0
0
0
0
0
0
0
0
0
0
0
0
0
0
0
0
1
1
0
0
0
1
1
0
0
0
0
1
0
0
1
0
1
0
0
0
0
0
1
0
0
0
1
0
0
0
0
0
0
0
0
0
0
0
0
0
0
0
0
0
0
0
0
0
0
0
0
0
0
0
1
0
0
0
0
0
0
1
0
0
0
0
0
0
0
0
0
0
0
0
0
0
0
0
0
0
0
0
0
0
0
0
0
0
0
0
0
1
0
1
0
0
0
0
0
0
0
1
0
0
0
0
0
0
0
0
0
0
0
1
0
0
0
0
0
0
0
0
0
1
0
0
0
0
0
0
0
1
0
0
0
0
0
0
0
1
0
0
0
0
0
0
0
0
0
0
0
0
0
0
0
0
0
0
0
1
0
1
0
0
0
0
0
1
0
0
0
0
0
0
0
0
0
0
0
0
0
0
0
0
0
0
0
0
0
0
0
0
0
1
0
1
0
0
0
0
0
0
0
0
0
1
0
0
0
0
0
1
0
0
0
0
0
0
0
0
0
0
0
0
0
0
0
1
0
0
0
0
0
0
0
0
1
0
0
0
0
0
0
0
0
0
0
0
0
0
0
0
0
0
0
0
0
0
0
0
0
0
0
0
0
0
0
1
0
0
0
0
0
0
0
0
0
0
0
0
0
0
0
0
1
0
0
0
0
0
0
0
0
1
0
0
0
0
0
0
0
0
0
1
0
0
0
0
0
1
0
0
0
0
0
0
0
0
0
0
0
0
0
0
0
0
0
0
0
1
0
0
0
0
0
0
1
0
0
0
0
0
0
0
0
1
0
0
0
0
0
0
0
0
0
0
0
0
0
0
1
0
0
1
0
0
0
1
0
0
0
0
0
0
0
0
0
0
0
0
0
0
0
0
1
0
0
0
0
0
0
0
0
0
0
1
0
1
0
0
0
0
0
0
1
0
0
0
0
0
0
0
0
0
0
0
0
0
0
0
0
0
0
0
0
0
0
0
0
0
0
0
1
1
0
0
0
0
0
0
1
0
0
0
0
0
0
0
0
0
0
0
0
0
1
0
0
0
0
0
0
0
1
0
0
0
0
0
0
0
0
0
0
0
0
0
0
0
0
0
0
0
0
0
0
0
0
0
0
0
1
0
0
0
0
0
0
0
0
0
0
1
0
0
1
0
0
0
0
0
0
0
0
0
0
0
0
0
0
0
0
0
0
0
0
0
0
0
0
0
0
0
0
0
1
0
0
0
0
0
0
0
1
0
0
0
0
0
0
0
1
0
0
0
0
1
0
0
0
0
0
0
0
0
0
0
0
1
0
1
0
0
0
1
0
				</DataArray>
				<DataArray type="Float64" Name="h" NumberOfComponents="1" Format="ascii">
0.8015559032
0.8015455710
0.8029883755
0.7962187261
0.8056204518
0.8037056666
0.8000085416
0.7956207733
0.8004032500
0.7914616231
0.7946931275
0.8002469062
0.7981583558
0.7924895120
0.7968237185
0.7965399291
0.7968433470
0.7932398958
0.8003829116
0.7924687004
0.8047160629
0.8015703500
0.8046834358
0.8092697494
0.7947203206
0.7977704088
0.8055313863
0.8208557927
0.8082346368
0.7907346154
0.7906496884
0.8061137668
0.8009923247
0.8023791620
0.8233461109
0.8124149843
0.8115523305
0.8068453102
0.8178761572
0.8087017311
0.8093774382
0.8232628013
0.8061748775
0.8102796557
0.8133032409
0.8170520322
0.8085954589
0.8288809267
0.8939648467
0.8824739554
0.8089484990
0.8149177086
0.8120920894
0.8455399998
0.8206330768
0.8083919716
0.8189562244
0.8414627071
0.8499750307
0.8438714618
0.8631972294
0.8553518902
0.8912755983
0.8167460840
0.8139666553
0.8274131799
0.8701503859
0.8794080280
0.8551370900
0.8474044687
0.8489504876
0.8234415570
0.8090070717
0.8538412452
0.8522672843
0.8186229627
0.8434809288
0.8627097224
0.8349286868
0.8189653446
0.8776982257
0.8325555211
0.9174547361
0.8666516173
0.8156988037
0.8234397604
0.8840242128
0.8535924234
0.8678827460
0.9112420122
0.8891068853
0.8208650051
0.8707882871
0.9021581717
0.8315128383
0.8270210066
0.8407966793
0.8167667657
0.8219664167
0.8847671555
0.9125241097
0.8765843850
0.8422648521
0.8332577410
0.7885174640
0.8587257574
0.8295342338
0.9021155252
0.8634547316
0.8353536513
0.8939092011
0.9044362303
0.8794958184
0.8904203686
0.8542018542
0.9109712965
0.8458897747
0.7897439413
0.9030800314
0.8666439845
0.7883614998
0.8450218205
0.8227561536
0.7835354655
0.8812085006
0.9039034670
0.8574575923
0.7837108023
0.9074700166
0.9112180428
0.9013636422
0.8336912330
0.8694880847
0.9131544689
0.7873981550
0.9006899324
0.7955158806
0.9152452896
0.8912864288
0.8013798244
0.7848776132
0.7846051507
0.9060310742
0.8049563318
0.8256240538
0.8964367890
0.7974428825
0.9218414128
0.7850715501
0.9244419574
0.7937267377
0.9175539486
0.9180801212
0.9248829208
0.8859198233
0.9175079614
0.9243196444
0.7873642471
0.9242444414
0.7821533095
0.8045300292
0.9218957560
0.7971895248
0.7838180861
0.7857288847
0.9172931955
0.8082560256
0.8012293339
0.7819855667
0.9184134922
0.9232721787
0.7811208060
0.9245472114
0.7879346937
0.8108332839
0.9294613606
0.8079259918
0.9235800824
0.9290771743
0.7846089978
0.9165085784
0.8132953647
0.7825183592
0.8252456033
0.7796885997
0.7811622881
0.8111845092
0.9267891292
0.7820158246
0.7817151996
0.8156887291
0.9287902807
0.7813969400
0.8138252235
0.9294043780
0.9219671299
0.7873967480
0.8184159470
0.8165223437
0.9265380006
0.7812060108
0.8287496223
0.7812993712
0.9266967937
0.8218154342
0.7856631163
0.8025083271
0.7951542602
0.8195579864
0.8088606758
0.8167664418
0.7815123225
0.7870705970
0.7862286411
0.7987431720
0.8193305420
0.8058838789
0.7878658002
0.8143617152
0.7829979325
0.8238586633
0.9044640994
0.8118049289
0.8801230414
0.8318970007
0.9255813022
0.9195136174
0.8529930370
0.8267657649
0.9134325232
0.9257716948
0.8930691688
0.8407280179
0.9264432219
0.9249189166
0.8662160596
0.8189797668
0.8073233392
0.7835391608
0.8137993648
0.8218646366
0.7996195938
0.7892416015
0.8117117564
0.7977690249
0.8053818978
0.7880669876
0.8166400211
0.8035420354
0.7918256337
0.8108879034
0.8192188085
0.7905138474
0.8217290070
0.8245686340
0.7898663417
0.8087059354
0.8016816431
0.7862352599
0.8893437200
0.8166768803
0.8344550261
0.8518189026
0.8783581960
0.8370745689
0.9245218933
0.9264376038
0.8274797775
0.9258276464
0.9042155388
0.9209190753
0.8143214325
0.9117500791
0.8612560690
0.8754146904
0.8310570603
0.8412284457
0.8645883552
0.8920011593
0.8299954112
0.9187174691
0.9260909737
0.9252508373
0.9263168989
0.9140598767
0.9017309860
0.8480243830
0.8132413262
0.7920549026
0.7937367631
0.8103715144
0.8244400342
0.8051529516
0.8026990139
0.8204293000
0.8288715164
0.8168138256
0.8092545612
0.7971108914
0.7898702017
0.7943792245
0.8066405978
0.8218923498
0.8318978658
0.8275126962
0.8170155766
0.8261714483
0.8137817009
0.7949060225
0.8395730389
0.8597293922
0.8529867095
0.9256336667
0.8335891992
0.9222447358
0.8878048141
0.8234517885
0.9119287168
0.9278561283
0.8194702406
0.8777741196
0.8390234643
0.9040740346
0.9261401073
0.8447755969
0.8477447679
0.8646003932
0.9261984450
0.8734835837
0.9009601168
0.9198468463
0.9281913069
0.9265332462
0.8382941595
0.8913844669
0.8346992643
0.9146235506
0.8165740770
0.9363439480
0.8283688190
0.8375975601
0.8235460212
0.7970251639
0.8321042982
0.8117221489
0.8204469722
0.8085218469
0.7991904088
0.9345307477
0.8720576198
0.8408021141
0.9007349892
0.8126239137
0.8007222832
0.9420155474
0.8245807135
0.8876028829
0.8347060549
0.8202369311
0.9186015103
0.9194518014
0.9384945275
0.7943806997
0.8292455099
0.8355949503
0.8161095111
0.8692133792
0.8767821886
0.8839144675
0.7997211940
0.9019639810
0.9339605890
0.8033104233
0.9298433816
0.8871591923
0.8792548331
0.9281057337
0.8299058218
0.9237611188
0.8476388524
0.8418004718
0.9121184313
0.9262302229
0.8317153561
0.9047270833
0.8264882230
0.8446266141
0.8609809733
0.8580970840
0.8647892343
0.9278916691
0.8473382618
0.8735108982
0.8787040421
0.9304604830
0.8921950741
0.8373039365
0.8497010264
0.8553899535
0.8738385343
0.8515844704
0.9208800150
0.8713406629
0.9005087739
0.8760796150
0.9277126994
0.9155903894
0.8415139954
0.8513030296
0.8684323601
0.8678118181
0.8693488344
0.9041281224
0.8817856881
0.8241470190
0.9374978336
0.9244478425
0.8319235957
0.9104927107
0.8618367045
0.8770174428
0.8712327901
0.8153910528
0.9282390168
0.9423304025
0.8827421677
0.9327791495
0.8028184022
0.9270723420
0.8413384162
0.8770804190
0.9477742905
0.9103426824
0.9398636060
0.8947410033
0.8915716546
0.9520220032
0.9151853693
0.9334800751
0.8831448520
0.8902954515
0.9241736018
0.8198204591
0.9379117870
0.8916972966
0.8282326239
0.8667732226
0.9054204491
0.8933894825
0.9361641806
0.9210621666
0.9298202858
0.7997221620
0.8600521777
0.8381819310
0.8712349481
0.9535339234
0.9468792965
0.9054586183
0.9561326593
0.8067438691
0.8449736762
0.8329008701
0.9275294935
0.8351995961
0.8885347674
0.8734702528
0.8525747956
0.8781776783
0.8233018011
0.9304767807
0.8413281737
0.9129706176
0.8479849970
0.8511567823
0.8660390369
0.9664369393
0.8720288492
0.8096090802
0.8336069768
0.8388309102
0.8547078712
0.8281525719
0.9298424564
0.9717001593
0.9660059189
0.9222186343
0.8442271888
0.8760623138
0.8573923930
0.9016587961
0.8503054438
0.9730862216
0.8140122340
0.8373024995
0.8603749594
0.8373558333
0.9774217948
0.9012835682
0.8468315460
0.9503897133
0.9565466159
0.8684805068
0.8553894638
0.8738388150
0.8448846235
0.8575654080
0.8059000505
0.8595691350
0.9151882575
0.8442282786
0.8510532713
0.9330514980
0.8413234474
0.8873409472
0.8096105724
0.9328167554
0.8854560838
0.8129450121
0.8472409533
0.8510566797
0.8973090621
0.8970302600
0.9379925316
0.8381357555
0.9462657373
0.8535550575
0.9149041501
0.8829430252
0.8565089810
0.9288163067
0.8328991843
0.9136832166
0.8278308575
0.8233007193
0.8844965067
0.8140127375
0.8373524881
0.8059017160
0.8829426861
0.8547145000
0.8830650772
0.8694951794
0.8091287556
0.8779874208
0.8429207662
0.8452771765
0.8479839438
0.8810097183
0.8643496461
0.9554038457
0.8741647534
0.8330282947
0.8866254235
0.8182043692
0.8886004584
0.8595117296
0.8585235321
0.9425280897
0.9496974204
0.8537383338
0.8537144835
0.9468850668
0.8281514155
0.8855033817
0.9152328998
0.8448804708
0.8734816886
0.9276333261
0.9298449218
0.8507118280
0.9114707233
0.9504507133
0.9224274298
0.8618484648
0.8217096506
0.8606965335
0.8942081664
0.9330524029
0.8626144497
0.8522892841
0.8934183528
0.9503913478
0.8592469176
0.9040073407
0.8368783723
0.9334922409
0.9041769383
0.8667818393
0.8696709565
0.9328017509
0.8866280654
0.8641193073
0.8874132187
0.8743769055
0.8600659798
0.8651220746
0.8167438467
0.9732620258
0.8747485761
0.8801720547
0.8598178112
0.9670519403
0.8475513869
0.8827512622
0.8787245673
0.8874895665
0.9694709578
0.9244787036
0.8602980103
0.8857538347
0.8314778113
0.9643501386
0.8654033897
0.8942075412
0.8423149760
0.9302898315
0.8278291749
0.8507078239
0.8565085071
0.8381350988
0.9519150685
0.8923175563
0.8263282331
0.8129456214
0.8564124268
0.8649522649
0.9858320916
0.8182032159
0.8792401710
0.8874898630
0.8692452727
0.8829249175
0.8595139184
0.8472374162
0.8537354697
0.8330275466
0.9716005762
0.9902052165
0.9559915685
0.9164385565
0.8091307490
0.8873198295
0.8882088443
0.8662163161
0.9705272698
0.9578023391
0.8866247933
0.8828787953
0.9726774104
0.8666095362
0.8563435652
0.8253214908
0.8410680455
0.8636066953
0.8634929425
0.8689070958
0.8429188000
0.9615962430
0.8517439194
0.8207443186
0.8356137696
0.9438954085
0.9795786317
0.9919279563
0.9494845083
0.8615072190
0.8602622648
0.8302616414
0.8464479743
0.9855811971
0.9901204338
0.8844962492
0.8857898122
0.8865119960
0.8737012298
0.9745279928
0.8738520877
0.8778463390
1.0055657425
1.0025252980
0.8778886662
0.8796139179
0.9826605664
0.8798488084
0.8816293596
0.8707396646
0.9939552822
1.0018786068
1.0004801727
0.8756585082
0.8709753051
0.8663750626
0.8680004568
0.8721765615
0.9914126734
1.0006875706
0.9660827497
0.9798034634
0.8626292497
1.0077298158
1.0111202377
0.8638054073
0.9902088812
0.9807643604
0.8602947862
1.0135723659
0.8741647075
0.9994129378
0.8616789077
0.8665018731
1.0131988474
0.8654012155
1.0078540616
0.9987816093
0.8537132861
0.9916073347
0.8554392259
0.8582809066
0.9867323358
0.9833480999
0.8415456482
0.8020303270
0.8025688157
0.8025535731
0.8020071333
0.7989969856
0.8002487084
0.7946930171
0.7974189797
0.8057946417
0.8037205475
0.8056046599
0.8057677856
0.8003913660
0.7968164819
0.8000126447
0.7929119817
0.7974195847
0.7989933674
0.7969896524
0.7932365887
0.7962216415
0.8029817967
0.8004055838
0.7907284673
0.7963756651
0.7994190557
0.7956260976
0.7977681230
0.7947145486
0.7914716158
0.7987413117
0.7981469532
0.8059984718
0.8006833629
0.8035466840
0.7929178763
0.7906413261
0.7969874513
0.8023776509
0.8009927943
0.8061494841
0.8048388059
0.8087119811
0.8173493241
0.7968501280
0.7965449353
0.8062019574
0.8179394026
0.7994190036
0.7963763455
0.8094048016
0.7924942840
0.7924795646
0.8059919721
0.8046420305
0.8314410747
0.8015561345
0.8133501555
0.7987296079
0.8047122443
0.8035193003
0.8026273295
0.8245827098
0.8288781499
0.8006861011
0.8133138399
0.8089494193
0.8086418353
0.8207857538
0.8092551399
0.8081904410
0.8189974135
0.8144007981
0.8055185237
0.8170481666
0.7938786128
0.8172946148
0.8256305288
0.8210915719
0.8048341140
0.8121340335
0.8314505612
0.8913128280
0.8822639596
0.8026053457
0.8133436904
0.8177479600
0.8245234119
0.8123980285
0.8140283805
0.8068057677
0.8283406826
0.8233449557
0.8912425154
0.8793613922
0.8270024016
0.8115472770
0.8167629774
0.8256122057
0.8390407733
0.8420088430
0.8102200925
0.8538242491
0.8418272302
0.8234422303
0.8090334010
0.8486326895
0.8125549815
0.8110115853
0.8170419766
0.8612567602
0.8210887684
0.8232322260
0.8434705218
0.8489407508
0.8561376370
0.8522510894
0.8143477209
0.8102980458
0.8551321691
0.8171621513
0.7938873947
0.8474024043
0.8177435265
0.8283482102
0.8241507222
0.8269636463
0.8700192574
0.8337177344
0.8790186221
0.8939955637
0.8148852582
0.8823085623
0.8169915938
0.8325895814
0.8666140590
0.8323422013
0.8913595051
0.8825219168
0.8631987603
0.8553508241
0.8102561023
0.8698555582
0.8561547531
0.8499903995
0.8403034283
0.8418313853
0.8171950289
0.8115609574
0.8390548156
0.8171608688
0.8307709133
0.8206233828
0.8564864759
0.8486346231
0.8612587441
0.8083766519
0.8357180695
0.8531232221
0.8125175445
0.8455369177
0.8420235317
0.8438811168
0.8208994304
0.8414673884
0.8109589690
0.8707815601
0.8700439693
0.8332574008
0.8220243744
0.8323296690
0.8140409562
0.8337190032
0.8765858797
0.8669018575
0.8781922523
0.8576246230
0.8273603988
0.9125433011
0.8701926067
0.8271530654
0.8168104856
0.8706247727
0.8270656206
0.8347278744
0.8790859673
0.8847673472
0.8586878894
0.8241024333
0.9181744222
0.8356963584
0.8634369875
0.9044140889
0.8698598338
0.8531391852
0.8794810032
0.8307663504
0.8186013294
0.8906707571
0.8403146221
0.8627207440
0.8115351265
0.8891966333
0.8171719385
0.8938460810
0.8353955307
0.8564947495
0.8782018024
0.9181339358
0.8426516733
0.8706212560
0.8234134566
0.8450397250
0.8655325669
0.8271520781
0.7923827642
0.8347245137
0.8576280133
0.8156678295
0.8189290818
0.8840223726
0.9174119063
0.8776954632
0.8459142405
0.8349306042
0.8669645451
0.7883534223
0.8536176750
0.8140128801
0.8891961766
0.8337146188
0.8817930137
0.7919839949
0.9039044847
0.8771463875
0.8913588711
0.8679021260
0.8314885983
0.9022028662
0.9094313028
0.9112323572
0.8891114820
0.9015565139
0.8402313327
0.8811763332
0.8574411359
0.8907652371
0.9112406014
0.8422457320
0.9116252967
0.8776804917
0.8426336292
0.7923866001
0.8655586795
0.8931578896
0.7873874073
0.9006980442
0.8694557088
0.7885215578
0.8408087131
0.8256451478
0.8694189332
0.7845942273
0.8789260519
0.7919863706
0.9094076369
0.8904369299
0.9021233922
0.7940065922
0.8402306304
0.8913682191
0.8542029431
0.7850597126
0.8818750236
0.9060485941
0.7828473564
0.9109468105
0.8771662228
0.8964472667
0.9015556279
0.8295265786
0.7859586103
0.8205962720
0.8649668203
0.9197230150
0.9116035921
0.8931816822
0.7908962691
0.9118678158
0.9104041548
0.8916194276
0.8666755367
0.8778001607
0.9175694655
0.7897544812
0.8969062946
0.9030739105
0.7889617227
0.7937096288
0.9181003971
0.8859276891
0.7940178105
0.7828594762
0.8012159673
0.7857167125
0.8789691965
0.9225275322
0.7859687830
0.7833274957
0.9235861662
0.8564292132
0.8694935541
0.7835467479
0.9074532171
0.8045242919
0.7860227073
0.8227412605
0.9013529780
0.7872094886
0.7971714075
0.9030561544
0.9219218956
0.7837229724
0.9242607680
0.8916095045
0.7955338241
0.9131370607
0.9198899628
0.8511480243
0.9103806869
0.9146302805
0.9152225549
0.9245571976
0.7888397961
0.7904439268
0.8912782549
0.7889687879
0.8650709249
0.7909100384
0.9197058102
0.8205826840
0.8968956693
0.9184396239
0.9036033433
0.9118489796
0.9232848809
0.7879231075
0.9244242553
0.7825096448
0.8436936367
0.7860344836
0.7833400879
0.9163997902
0.9220914372
0.9254071045
0.8049538954
0.9218131573
0.7974564180
0.7845970902
0.9235648478
0.7872190987
0.8564853744
0.7842722822
0.7848915527
0.9165401327
0.9030406541
0.8079305231
0.8993664679
0.8013875854
0.9225057379
0.7827930275
0.7820044937
0.9174767311
0.9243056952
0.7904515831
0.8380112892
0.9198674646
0.7858303131
0.7888501777
0.8512167663
0.7796783258
0.9146035003
0.9248744458
0.7873704928
0.9035896005
0.8112078840
0.8324122380
0.9294106545
0.8082423702
0.7828039125
0.9163632188
0.9220048216
0.7842813507
0.9253947139
0.8993540590
0.9205748736
0.7812935444
0.9220716919
0.8437181405
0.7820122463
0.9287961100
0.9098938548
0.7838296156
0.9172585907
0.8138514363
0.9241394917
0.7821629132
0.8287547269
0.9284169734
0.7811317069
0.7812904851
0.8108206139
0.9267042036
0.8380269435
0.7819970342
0.7811967183
0.7858405942
0.8165428671
0.9276564844
0.9290707918
0.7869698542
0.7813031145
0.7820239410
0.7815029476
0.9241146113
0.9205412773
0.7847536847
0.9213069674
0.8132776556
0.9098784024
0.9294551833
0.8324124030
0.7819411262
0.7813087720
0.9235498140
0.7870620148
0.8195701937
0.8156693841
0.9257817470
0.9284113904
0.7817248953
0.9276505250
0.9255651850
0.9272135312
0.8252359812
0.7811707831
0.9267815451
0.8238724108
0.7880617302
0.8053721872
0.7899154739
0.7977556768
0.8184015949
0.7813184150
0.8225374564
0.7826661599
0.8117187580
0.7908032456
0.7869830445
0.8189956784
0.7814057089
0.7823361847
0.9212637438
0.7874081044
0.7844436888
0.8016655139
0.7940287954
0.8217384239
0.8087053551
0.7905079377
0.8166570892
0.7819510120
0.7835303215
0.7847612309
0.9251065889
0.8254330042
0.8218048388
0.9255555713
0.9016350697
0.8143343497
0.9272081582
0.8752558549
0.8300043923
0.9252686062
0.9187407018
0.9230963976
0.8479607684
0.8274784118
0.9117226769
0.9265320127
0.8891915683
0.8370717589
0.9258335600
0.9227344171
0.9245551576
0.8611255544
0.8167459484
0.8103689932
0.7958850179
0.7830053745
0.8168233945
0.8244490408
0.7908116302
0.8225302947
0.7899281672
0.7849202399
0.8281712698
0.8026893751
0.7920524592
0.7826748337
0.8088540275
0.7951685666
0.8025227361
0.7856684280
0.8143406712
0.8066313937
0.7949032906
0.7823451445
0.8137856583
0.8219075005
0.7878713844
0.8193168435
0.8275088463
0.7987715246
0.7875850947
0.8058881500
0.7940375030
0.7987620859
0.7844508078
0.8931793158
0.8194846355
0.8317830520
0.8346936478
0.8477259282
0.8733273990
0.8407546787
0.9226947497
0.9248892076
0.9262115131
0.8267623748
0.9264382757
0.9247765162
0.9008247076
0.9198396790
0.8117893316
0.9250926099
0.9134394935
0.8663229765
0.8802511835
0.8335690106
0.8390236601
0.8596419239
0.8876308869
0.8318993413
0.9194822512
0.9230564526
0.9256376710
0.8254357640
0.9255675299
0.9261628573
0.9118612897
0.9244244997
0.9045275803
0.8530829842
0.8165754701
0.8011403711
0.7892444251
0.7849276488
0.7970243246
0.8073303535
0.8218511832
0.8359089991
0.8085151334
0.8281827255
0.7996301835
0.8235558581
0.8321031460
0.8137890573
0.7958906500
0.8126204129
0.8007200250
0.7875896992
0.7916440001
0.8035551543
0.8192004330
0.8355800994
0.8044080516
0.8245651853
0.7987770303
0.8202424598
0.8292543236
0.8108853906
0.7918285611
0.8414936599
0.8647197924
0.8512915984
0.9260880697
0.8310658636
0.9208478494
0.8921517220
0.8265002680
0.9141028028
0.9244036617
0.9266323921
0.9277118455
0.8403353956
0.8166603523
0.8734366541
0.8412453189
0.9003735373
0.9262905044
0.8446187680
0.8518716499
0.8608757319
0.9264250760
0.8318035271
0.9261609877
0.8785136889
0.9043203825
0.9209114622
0.9281097819
0.9262269219
0.8417723291
0.8870201337
0.8344605238
0.9120310137
0.9247478765
0.9374843010
0.8770764805
0.8450286270
0.9104761209
0.8132423939
0.8011453023
0.9368426287
0.9396794016
0.8319311021
0.8806231592
0.8413326584
0.8204186388
0.9097051134
0.9282194498
0.9414286248
0.7937379113
0.8288673684
0.8359330134
0.8153889396
0.8241492813
0.8051615218
0.8693440635
0.8754016959
0.8915690607
0.8028170273
0.8934515186
0.9269614259
0.8074313385
0.9347661904
0.8703645689
0.8449595572
0.9013191275
0.8092619440
0.7971129693
0.9333701923
0.9428573938
0.8282374893
0.8864175533
0.8381848184
0.8170103449
0.9188256896
0.9212846248
0.9379754509
0.7916464307
0.8261593351
0.8319064159
0.8110027749
0.8198207450
0.8044131554
0.8666955799
0.8781471910
0.8830799654
0.7965677757
0.9010920395
0.9344889988
0.8067414692
0.8648139581
0.9298265526
0.8499648359
0.8915374356
0.8817068442
0.9286991240
0.8761074011
0.9281788079
0.8336086982
0.8385568832
0.8512481931
0.9221789190
0.8573929675
0.8779973339
0.8502823792
0.9261621808
0.8383163068
0.8703890822
0.9146931946
0.8745306388
0.9265346400
0.8352070633
0.9011870642
0.8234377854
0.8447866802
0.8647020737
0.8720618050
0.8575561589
0.8684806028
0.9275141924
0.8511361437
0.8779031367
0.8801720887
0.9304669539
0.8884594392
0.9266243498
0.8289321476
0.8332456400
0.8539469156
0.9281414015
0.8594120417
0.8768054507
0.8525600658
0.9222627105
0.8403634011
0.8747485953
0.9041992878
0.8781774639
0.9278508259
0.9128937144
0.8395837644
0.8530649482
0.8720289778
0.8659449946
0.8672365691
0.9445417323
0.9069978484
0.9312656321
0.8854556663
0.8806247934
0.8973091220
0.9148431754
0.8204455396
0.9370513622
0.9305542606
0.9259463002
0.9370407924
0.8879460926
0.8283606744
0.9114375956
0.8601756145
0.8754043665
0.8757540310
0.8685391735
0.8979569507
0.8117270149
0.9293808812
0.9414436163
0.8836785395
0.9425240622
0.9114080446
0.9288294875
0.9325946257
0.7991918476
0.8570839459
0.9269761876
0.8375991530
0.8692169712
0.8770159137
0.9553947830
0.9496892002
0.8757573372
0.9136889549
0.9492846320
0.9097100639
0.9396891946
0.9541264170
0.8074357105
0.8450492468
0.8934511705
0.8914610067
0.9423134416
0.8720638976
0.9500481528
0.9176217992
0.9270674013
0.9333207052
0.8826005607
0.8767843521
0.8900620313
0.9231742368
0.8161115308
0.9368609177
0.9395331541
0.9307578064
0.8908824522
0.8245760072
0.9194747734
0.8659647338
0.8762958649
0.8762944941
0.9060811157
0.8110060451
0.9345448463
0.9420297263
0.8952384835
0.9350525651
0.9198546145
0.9300623169
0.7965690756
0.8571614349
0.8947443080
0.9186120410
0.8347000548
0.8685424336
0.9519043797
0.9463502198
0.8839215097
0.9044817668
0.9452523218
0.9010923599
0.9345045473
0.9578481934
0.8033129638
0.8408133949
0.8864145151
0.9007445405
0.8288751976
0.9278996250
0.9643479337
0.9670513519
0.9281552120
0.8317060661
0.8388296466
0.8923081772
0.8594118925
0.9114721122
0.8738006521
0.8515927229
0.8760800031
0.9732602724
0.8147155229
0.8385553532
0.8193216036
0.9304647744
0.8679019468
0.8375236619
0.9726795558
0.9156647388
0.8486548141
0.9410408424
0.9620514350
0.8648129840
0.8497002863
0.8725417341
0.8725421166
0.8442023021
0.8473623949
0.8677438629
0.9640199786
0.8684321164
0.8799715783
0.8054225017
0.8299036815
0.8606885495
0.9074702042
0.8435124224
0.8519984113
0.8503202026
0.8418649303
0.9424201586
0.8241154157
0.9298503660
0.9694711746
0.9635576681
0.9237920439
0.8403393632
0.8793248508
0.8539464784
0.9038501248
0.8476557833
0.8799717652
0.9705242512
0.8102901560
0.8332439861
0.8185288689
0.9287079009
0.8641194046
0.8334119867
0.9739383725
0.9048381478
0.8435111858
0.9503410098
0.9546374448
0.8647889515
0.8512479523
0.8768056772
0.8609421108
0.8411049716
0.8499855860
0.8581432450
0.9629666143
0.8720618931
0.8023335676
0.8289300366
0.8458156969
0.8545271506
0.9184902866
0.8350405096
0.8486557791
0.8471107643
0.9330709951
0.8827174494
0.8147167864
0.8375183249
0.8879456238
0.8054251737
0.9305389581
0.8831449552
0.8545365560
0.8850394328
0.8851059712
0.8697928365
0.8177306735
0.8790877074
0.9484147715
0.8511168264
0.8968758218
0.8465712258
0.8471118072
0.8801422950
0.8968720717
0.8830863901
0.8979570960
0.8659001173
0.9293614083
0.9333963657
0.8873414814
0.8667009315
0.9484239410
0.8747337847
0.8422753314
0.9445399553
0.9213162920
0.8859783802
0.8492924337
0.8672305808
0.8227564916
0.9148359801
0.9019653278
0.8823578017
0.8876293277
0.9398538189
0.8635890067
0.8591331405
0.9363668210
0.9563948957
0.8781494097
0.9276863156
0.9573748300
0.8603824281
0.8558592302
0.9276777569
0.9415289553
0.8288739074
0.8872043311
0.9123026626
0.8320357120
0.8193217892
0.9339719973
0.8848872856
0.8102919092
0.8334088663
0.8865040541
0.8023359104
0.9231605065
0.8823577133
0.9149049525
0.8503257488
0.8837746841
0.8902961873
0.8713643320
0.8130790091
0.8796137101
0.8468933766
0.8491859509
0.8441988899
0.8822840424
0.8817840665
0.9054511143
0.8916970003
0.8665023743
0.9385103779
0.9462742850
0.9492956427
0.8758771229
0.8372453071
0.9378949852
0.8859566870
0.8524176134
0.8218676230
0.9060820856
0.9573676597
0.8865047198
0.8869976518
0.8638268499
0.8616798527
0.9500530471
0.9561399281
0.8575182410
0.8574776723
0.9361580318
0.9541305724
0.8241147254
0.8854753876
0.9210589552
0.8268299447
0.8185285922
0.9176786701
0.8410991935