<VTKFile type="UnstructuredGrid" version="0.1">
	<UnstructuredGrid>
		<Piece NumberOfPoints="1862" NumberOfCells="3498">
			<CellData>
				<DataArray type="Int32" Name="type" NumberOfComponents="1" Format="ascii">
0
0
0
0
0
0
0
0
0
0
0
0
0
0
0
0
1
0
0
1
0
0
0
0
0
0
0
0
0
0
0
0
0
1
0
0
0
0
0
0
0
0
0
0
0
0
0
0
0
0
1
0
0
0
0
0
0
0
0
0
0
1
0
0
0
0
0
0
0
0
0
0
0
0
0
0
0
0
0
0
0
0
0
0
0
0
0
0
0
0
0
0
0
0
0
0
0
0
0
0
0
0
0
0
0
0
0
0
0
0
0
0
0
0
0
0
0
0
0
0
0
0
0
1
0
0
0
0
0
0
0
0
0
0
0
0
0
0
0
0
0
0
0
0
0
0
0
0
0
0
0
1
0
1
1
0
0
0
0
0
0
0
0
0
0
0
0
0
1
0
1
0
0
0
0
1
0
0
0
0
0
0
0
0
1
1
0
0
0
0
0
1
0
0
0
0
0
0
0
0
1
0
0
0
0
0
0
0
0
0
0
0
0
0
0
0
0
0
0
0
0
0
0
0
0
0
0
0
0
0
0
0
0
1
0
0
0
0
0
0
0
0
0
0
0
0
0
0
0
0
0
0
0
0
0
0
0
0
0
0
0
0
0
0
0
0
0
0
0
0
0
0
0
0
0
0
0
0
0
0
0
1
0
0
0
0
0
0
0
0
0
0
0
0
0
0
0
0
0
0
0
0
0
0
0
0
0
0
0
0
0
0
0
0
0
0
0
0
0
0
0
0
0
0
0
0
0
0
0
0
0
0
1
0
0
0
0
0
0
0
0
0
0
0
0
0
0
0
0
0
0
0
0
0
0
0
0
0
0
0
0
0
0
0
0
0
0
0
0
0
0
0
0
0
0
0
0
0
0
0
0
0
0
0
0
0
0
0
0
0
1
0
0
0
0
0
0
0
0
0
0
0
0
0
0
0
0
0
0
0
0
0
0
0
0
0
0
0
0
0
0
0
0
0
0
0
0
0
0
0
0
0
0
0
0
0
0
0
0
0
0
0
0
0
0
0
0
0
0
0
0
0
0
0
0
0
0
0
0
0
0
0
0
0
0
0
0
0
0
0
0
0
0
0
0
0
0
0
0
0
0
0
0
0
0
0
0
0
0
0
0
0
0
0
0
0
0
0
0
0
0
0
0
0
0
0
0
0
0
0
0
0
0
0
0
0
0
0
0
0
0
0
0
1
0
0
0
0
0
0
0
0
0
0
0
0
0
0
0
0
0
0
0
1
0
0
0
0
0
0
0
0
0
0
0
0
0
0
0
0
0
0
0
0
0
0
0
0
0
0
0
0
0
0
0
0
0
0
0
0
0
0
0
0
0
0
0
0
0
0
0
0
0
0
0
0
0
1
0
0
0
0
0
0
0
0
0
0
0
0
0
0
0
0
0
0
0
0
0
0
0
1
0
0
0
0
0
0
0
0
0
0
0
0
0
0
0
0
0
0
0
1
0
0
0
1
0
0
0
0
0
0
0
0
0
0
0
0
0
0
0
0
0
0
0
0
0
0
0
0
0
1
0
0
0
0
0
0
0
1
0
0
0
0
0
0
0
0
0
0
0
0
0
0
0
0
0
0
0
0
0
0
0
0
0
0
1
0
0
0
0
0
0
0
1
0
0
0
0
0
0
1
0
0
0
0
0
0
0
0
0
0
0
0
0
0
0
0
0
0
0
0
0
0
0
0
0
0
0
0
0
0
0
0
0
0
0
0
0
0
1
0
0
0
0
0
1
0
0
0
0
0
0
0
1
0
0
0
0
0
0
0
0
0
0
0
0
0
1
0
0
0
0
0
0
0
0
0
0
0
0
0
0
0
0
0
0
0
0
0
0
0
0
0
0
0
0
0
0
0
0
0
0
0
0
0
0
0
0
0
0
0
0
0
0
0
0
0
0
0
0
0
1
0
0
0
0
0
0
0
0
0
0
0
0
0
0
0
0
0
0
0
1
0
0
0
0
0
0
0
0
0
1
0
0
0
0
0
0
0
0
0
0
0
0
0
0
0
0
0
0
0
0
0
0
0
0
0
0
0
0
0
1
0
1
0
0
0
0
0
0
0
0
0
0
0
0
0
0
0
0
0
0
0
0
0
0
0
0
0
0
0
1
0
0
0
1
0
0
0
0
0
0
0
0
0
0
0
0
0
0
0
0
0
0
0
0
0
0
0
0
0
0
0
0
1
0
0
0
0
0
0
0
0
0
0
0
0
0
0
0
0
0
0
0
0
0
0
0
0
0
1
0
0
0
0
0
0
0
0
0
0
0
0
0
0
0
0
0
0
0
0
0
0
0
1
0
0
0
0
0
0
1
0
0
0
0
0
0
0
0
0
0
0
1
0
0
0
0
0
0
0
0
0
0
0
0
0
0
0
0
0
0
0
0
1
0
0
0
0
0
0
0
0
0
0
0
1
0
0
0
0
0
0
0
0
0
0
0
0
0
0
0
0
0
0
0
0
0
1
0
0
0
0
0
0
0
0
0
1
1
0
1
0
1
0
0
0
0
0
0
0
0
0
0
0
1
0
0
0
0
0
1
1
0
0
0
0
0
0
1
0
0
0
0
0
1
1
1
0
0
0
0
0
0
0
0
0
0
0
0
1
1
0
0
1
0
0
0
0
0
1
0
0
0
1
0
1
0
0
0
0
0
0
0
1
0
0
0
0
0
0
0
1
0
0
1
0
0
0
0
0
0
0
0
0
0
0
0
0
0
0
1
0
0
0
0
0
0
0
0
0
0
0
0
0
0
0
0
0
0
0
0
0
0
0
0
0
0
0
0
0
0
0
0
0
0
0
0
1
0
0
0
0
0
0
1
0
0
0
1
0
0
0
0
0
0
0
0
0
0
0
1
0
0
0
0
0
0
0
0
0
0
0
0
0
0
0
0
0
0
0
0
0
0
0
0
0
0
0
0
0
0
0
0
0
0
0
0
0
0
0
0
1
1
0
0
0
0
0
0
0
0
0
0
0
0
0
1
0
0
0
0
0
0
0
0
0
0
0
0
0
0
0
0
0
0
0
0
0
0
0
0
0
0
0
0
0
0
0
0
0
0
0
0
0
0
0
0
0
0
0
0
0
0
0
0
0
0
0
0
0
0
0
0
0
0
0
0
0
0
0
0
0
0
0
0
0
0
0
0
1
1
0
0
0
0
0
0
0
0
1
0
0
0
0
0
0
0
0
0
0
0
0
0
0
0
0
0
0
0
0
0
0
0
1
0
0
0
0
0
0
0
0
0
0
0
0
0
0
0
0
1
0
0
0
0
0
0
0
0
0
0
0
0
0
0
0
0
0
0
0
0
0
0
0
0
0
0
0
0
0
0
0
0
0
0
0
0
0
0
0
0
0
0
0
0
0
0
0
0
0
0
0
0
0
0
0
0
0
0
0
0
0
0
0
0
0
0
0
0
0
0
0
0
0
0
0
0
0
0
0
0
0
0
0
0
0
0
0
0
0
0
1
1
0
0
0
0
0
1
0
0
0
0
0
0
0
0
0
0
0
0
1
0
0
0
0
0
0
0
0
0
0
0
0
0
0
0
0
0
0
0
0
0
0
0
0
0
0
0
0
0
0
0
0
0
0
0
0
0
0
0
0
0
0
0
0
0
0
0
0
0
0
0
0
0
1
0
1
0
0
0
0
0
0
0
0
0
0
0
0
0
0
0
0
0
0
1
0
0
0
0
0
0
0
0
0
0
0
0
0
0
0
0
0
0
0
0
0
0
0
0
0
0
0
0
0
0
0
0
0
0
0
0
0
0
0
0
0
0
0
0
0
0
0
0
0
0
0
0
0
0
0
0
0
0
0
0
0
0
0
0
0
0
0
0
0
0
1
0
0
0
0
0
0
0
0
0
0
1
0
0
0
0
0
0
0
0
0
0
0
0
0
0
0
0
0
0
0
0
0
0
0
0
0
0
0
0
0
0
0
0
0
0
0
0
0
1
0
0
0
0
0
0
0
0
0
0
0
0
0
0
0
0
0
0
0
0
0
0
0
0
0
0
0
0
0
0
0
0
0
0
0
0
0
0
0
0
0
0
0
0
0
0
0
0
0
0
0
0
0
0
0
0
0
0
0
0
0
0
0
0
0
0
0
0
0
0
0
0
0
0
0
0
0
0
0
0
0
1
0
0
0
0
0
0
0
0
0
0
0
0
0
0
0
0
0
0
0
0
0
0
0
0
0
0
0
0
0
0
0
0
0
0
0
0
0
0
0
0
0
0
0
0
0
0
0
0
0
0
0
0
0
0
0
0
0
0
0
0
0
0
0
0
0
0
0
0
0
0
0
0
0
0
0
0
0
0
0
0
0
0
0
0
0
0
0
0
0
0
0
0
0
0
0
0
0
0
0
0
0
0
0
0
0
0
0
0
0
0
0
0
0
0
0
0
0
0
0
0
0
0
0
1
0
0
0
0
0
0
0
0
0
0
0
0
0
0
0
0
0
0
0
0
0
0
0
0
0
0
0
0
0
0
0
0
0
0
0
0
0
0
0
0
0
0
0
0
0
0
0
0
0
0
0
0
0
0
0
0
0
0
0
0
0
0
0
0
0
0
0
0
0
0
0
0
0
0
0
0
0
0
0
0
0
1
0
0
0
0
0
0
0
1
0
0
0
0
0
0
0
0
0
0
0
0
0
0
0
0
0
0
0
0
0
0
0
0
0
0
0
0
0
0
0
0
0
0
0
0
0
1
0
0
0
0
0
0
0
0
0
0
0
0
0
0
0
0
0
0
0
0
0
1
0
0
0
0
0
0
0
0
0
0
0
0
1
1
0
0
0
0
0
0
0
0
0
0
0
0
0
0
0
1
1
0
1
0
0
0
0
0
0
0
0
0
1
0
0
0
0
0
0
1
0
0
0
0
0
0
0
0
0
0
1
0
0
0
0
1
0
1
0
0
0
0
0
0
0
1
0
0
0
1
0
0
0
1
0
1
1
0
0
1
1
0
0
0
1
0
0
0
1
0
0
0
0
0
0
0
0
0
1
0
0
0
0
0
0
1
0
0
0
0
0
0
0
0
0
0
0
0
0
0
0
0
0
0
0
0
0
0
0
0
0
0
0
1
0
0
1
0
0
0
0
0
0
0
0
0
0
0
0
0
0
0
0
0
0
1
0
0
1
0
0
0
0
0
0
0
0
0
0
0
1
0
0
1
0
0
0
0
0
0
0
0
0
0
0
1
1
0
0
0
0
0
0
0
0
0
0
0
0
1
0
0
0
0
0
0
0
0
0
0
0
0
0
0
0
0
0
1
0
0
0
0
0
0
0
0
0
0
0
0
0
0
0
0
0
1
0
0
0
0
0
0
0
0
0
0
0
0
0
0
0
0
0
0
0
0
0
0
0
0
0
0
0
0
0
0
0
0
0
0
0
0
0
0
0
0
1
0
0
0
0
0
0
0
0
0
0
0
0
0
0
0
0
0
0
0
0
0
0
0
0
0
0
0
0
0
0
0
0
0
0
0
0
0
0
0
0
0
0
0
0
0
1
0
0
0
0
0
0
0
0
0
0
0
0
0
0
0
0
0
0
0
0
0
0
0
0
0
0
0
0
0
0
0
0
0
0
0
0
0
0
0
0
0
0
0
0
0
0
0
1
0
0
0
0
0
0
0
0
0
0
1
0
0
0
0
0
0
0
0
0
0
0
0
0
0
0
1
0
0
1
0
0
0
0
0
0
0
0
0
0
0
0
0
0
0
0
0
0
0
0
0
0
0
1
0
0
0
0
0
0
0
0
0
0
0
0
0
0
0
0
0
0
0
0
0
0
0
0
0
0
0
0
0
0
0
0
0
0
0
1
0
0
0
0
0
0
0
0
0
0
0
0
0
0
0
0
0
0
0
0
0
0
0
0
0
0
0
0
0
0
0
0
0
0
0
0
0
0
0
0
0
0
0
0
0
0
0
0
0
0
0
0
0
0
0
0
0
0
0
0
0
0
0
0
0
0
0
0
0
0
0
0
0
0
0
0
1
0
0
0
0
0
0
0
0
0
0
0
0
0
0
0
0
0
0
0
0
0
0
0
0
0
0
0
0
0
0
0
0
0
0
0
0
0
0
0
1
0
0
0
0
0
0
0
0
0
0
0
0
1
1
0
0
0
0
0
0
0
0
0
0
0
0
0
0
0
0
0
0
0
0
0
0
0
0
0
0
0
0
0
0
0
0
0
0
0
0
0
0
0
0
0
0
0
0
0
0
0
0
0
0
0
0
0
0
0
0
0
0
0
0
0
0
0
0
0
0
0
0
0
0
0
0
0
0
0
0
0
0
0
0
0
0
0
0
0
0
0
0
0
0
0
0
0
0
0
0
0
0
0
0
0
1
0
1
0
0
0
0
0
0
0
1
1
1
1
0
0
0
0
0
0
0
0
0
0
0
0
0
0
0
0
0
0
0
0
0
0
0
0
0
0
0
0
1
1
0
0
0
0
0
0
0
0
0
0
0
0
0
0
0
0
0
0
1
0
0
0
0
0
0
0
1
1
0
1
1
0
0
1
0
0
0
0
0
0
0
1
0
1
0
0
0
0
0
0
0
0
0
0
0
0
0
0
0
0
0
0
0
0
0
0
0
0
0
0
0
1
1
0
0
0
1
1
0
0
0
0
1
0
0
1
0
1
0
0
0
0
0
1
0
0
0
1
0
0
0
0
0
0
0
0
0
0
0
0
0
0
0
0
0
0
0
0
0
0
0
0
0
0
0
1
0
0
0
0
0
0
1
0
0
0
0
0
0
0
0
0
0
0
0
0
0
0
0
0
0
0
0
0
0
0
0
0
0
0
0
0
1
0
1
0
0
0
0
0
0
0
1
0
0
0
0
0
0
0
0
0
0
0
1
0
0
0
0
0
0
0
0
0
1
0
0
0
0
0
0
0
1
0
0
0
0
0
0
0
1
0
0
0
0
0
0
0
0
0
0
0
0
0
0
0
0
0
0
0
1
0
1
0
0
0
0
0
1
0
0
0
0
0
0
0
0
0
0
0
0
0
0
0
0
0
0
0
0
0
0
0
0
0
1
0
1
0
0
0
0
0
0
0
0
0
1
0
0
0
0
0
1
0
0
0
0
0
0
0
0
0
0
0
0
0
0
0
1
0
0
0
0
0
0
0
0
1
0
0
0
0
0
0
0
0
0
0
0
0
0
0
0
0
0
0
0
0
0
0
0
0
0
0
0
0
0
0
1
0
0
0
0
0
0
0
0
0
0
0
0
0
0
0
0
1
0
0
0
0
0
0
0
0
1
0
0
0
0
0
0
0
0
0
1
0
0
0
0
0
1
0
0
0
0
0
0
0
0
0
0
0
0
0
0
0
0
0
0
0
1
0
0
0
0
0
0
1
0
0
0
0
0
0
0
0
1
0
0
0
0
0
0
0
0
0
0
0
0
0
0
1
0
0
1
0
0
0
1
0
0
0
0
0
0
0
0
0
0
0
0
0
0
0
0
1
0
0
0
0
0
0
0
0
0
0
1
0
1
0
0
0
0
0
0
1
0
0
0
0
0
0
0
0
0
0
0
0
0
0
0
0
0
0
0
0
0
0
0
0
0
0
0
1
1
0
0
0
0
0
0
1
0
0
0
0
0
0
0
0
0
0
0
0
0
1
0
0
0
0
0
0
0
1
0
0
0
0
0
0
0
0
0
0
0
0
0
0
0
0
0
0
0
0
0
0
0
0
0
0
0
1
0
0
0
0
0
0
0
0
0
0
1
0
0
1
0
0
0
0
0
0
0
0
0
0
0
0
0
0
0
0
0
0
0
0
0
0
0
0
0
0
0
0
0
1
0
0
0
0
0
0
0
1
0
0
0
0
0
0
0
1
0
0
0
0
1
0
0
0
0
0
0
0
0
0
0
0
1
0
1
0
0
0
1
0
				</DataArray>
				<DataArray type="Float64" Name="h" NumberOfComponents="1" Format="ascii">
0.9038663573
0.9038824509
0.9062857156
0.9063405010
0.9049126715
0.9059735128
0.9052690016
0.9053390742
0.9059502907
0.9060728524
0.9065469580
0.9062012868
0.9004903568
0.9070017208
0.9034410364
0.8978735679
0.9065126888
0.9040292146
0.8996962832
0.9069665136
0.9073403425
0.8969581260
0.8962175013
0.9059915359
0.9067415002
0.9007497227
0.8881666573
0.8811948957
0.8988038958
0.9070310451
0.9072757540
0.9001264833
0.8938708033
0.9068981543
0.9091131193
0.9019321592
0.9083359746
0.8891473563
0.8737828786
0.9064112111
0.9020247419
0.8918663493
0.8920524428
0.8914986249
0.9043427895
0.8861940091
0.8937324944
0.9093936580
0.8958128576
0.8876304189
0.9081118154
0.8954926702
0.8962788247
0.8907377512
0.8997997527
0.8841160218
0.8918423142
0.9111668824
0.9085916004
0.8997717430
0.9154032230
0.9162575960
0.8999824325
0.8997808272
0.8870872316
0.8752487650
0.8769753897
0.8921635102
0.9134134626
0.9154179901
0.9084839242
0.9045725874
0.8807933908
0.8934141491
0.9023203359
0.8516095233
0.9100253844
0.9099600665
0.9107197660
0.8623081198
0.9146418382
0.8757860587
0.8891947215
0.8808407022
0.8618804068
0.8548181642
0.9145320603
0.8677282077
0.9055915062
0.8925529284
0.9110499389
0.8566224370
0.9123243553
0.8896840678
0.8614601140
0.8612367091
0.8556703142
0.8648823126
0.8686940958
0.9133485881
0.8936361069
0.9168850537
0.8711468484
0.9125492644
0.9057125352
0.8650411006
0.8468220558
0.8977601244
0.9092674274
0.8690710131
0.8870411417
0.8930953993
0.9091022362
0.9063899392
0.8817778253
0.9026412901
0.8786360010
0.9076730781
0.9042919233
0.8922194169
0.9072902294
0.8637429710
0.8421140131
0.9108369061
0.9041476600
0.8996891087
0.8883698793
0.9102272325
0.9060922411
0.8999030131
0.9080106259
0.8543764948
0.8973327962
0.9012515887
0.9080730567
0.9080466502
0.9004155975
0.8971604782
0.9150848668
0.8926867337
0.9098781491
0.9097643436
0.9037293143
0.8876774733
0.8477577115
0.9109768299
0.8960226131
0.8798340833
0.9095615331
0.8695463688
0.9009439742
0.8955113605
0.8913556855
0.8729871204
0.9161752280
0.8924474515
0.8772996122
0.9071762069
0.8727965782
0.9122290431
0.8901565790
0.8826529606
0.8974857286
0.9098146449
0.9087704199
0.8899903219
0.8807590984
0.8951723762
0.9128019360
0.8870458110
0.8826964409
0.9140381187
0.8738825657
0.9068646296
0.8757103370
0.8538317450
0.8838452187
0.8704995313
0.8577728298
0.9092341850
0.8936641349
0.8659366038
0.9114149961
0.8356538766
0.9135409886
0.9170124857
0.8721756402
0.8630281690
0.9138031316
0.9189084699
0.8554031374
0.8595899251
0.9138767346
0.8622002985
0.8549869774
0.8788452745
0.9061382706
0.8448645928
0.8516732635
0.8563984670
0.9197601623
0.8343655797
0.9174530624
0.8601252749
0.8349142491
0.9081823437
0.8925412435
0.8996542193
0.8412122968
0.8813230097
0.8535542761
0.9150203286
0.9072232254
0.9097767051
0.8962679424
0.8428575204
0.8876320876
0.9055531506
0.8638741969
0.9110355241
0.8318761739
0.8845942095
0.8733231270
0.8655318603
0.8284711088
0.8600938014
0.8844703557
0.8437992260
0.8266176444
0.8875282023
0.8604283876
0.8766167933
0.8345354534
0.8555791974
0.8679613920
0.8539187592
0.8472091370
0.8878564464
0.9125973586
0.8750243666
0.8466758386
0.8958772899
0.9050501014
0.8766744671
0.8973344123
0.8899786543
0.9066544944
0.8576861604
0.8922717957
0.9021337545
0.8821493758
0.8567805168
0.9038064381
0.8370857577
0.8368579653
0.9064652458
0.8840768508
0.8942123100
0.9097910015
0.8700804695
0.8664726477
0.8212976859
0.8322747650
0.8538299049
0.8287006828
0.8684828008
0.8594720591
0.8249979554
0.8556029421
0.8746330577
0.8793314963
0.8677225588
0.8847893757
0.8461424165
0.8583062322
0.8215400641
0.8247936824
0.8422012593
0.8653714119
0.8248832464
0.8841740307
0.8549814978
0.8610862078
0.8663359542
0.8796640575
0.8796276443
0.8362368788
0.8829707792
0.9030947456
0.9015585100
0.8844975699
0.8414296625
0.8919317897
0.8935207632
0.8693838832
0.8424943112
0.8699899979
0.8878913870
0.8983776322
0.9064779235
0.9026424001
0.8895855857
0.8511613619
0.8341011167
0.8323381833
0.8768458331
0.8516419505
0.8779422006
0.9000023697
0.8183447601
0.8355070827
0.8246351565
0.8547209727
0.8221329857
0.8734321171
0.8583482405
0.8608265632
0.8757667889
0.8590856833
0.8608974660
0.8435865554
0.8211424670
0.8647335175
0.8664469143
0.8195925533
0.8264262334
0.8329852150
0.8600658869
0.8464977607
0.8687753976
0.8777007894
0.8649040146
0.8545576022
0.8207998196
0.8548616679
0.8198055759
0.8713574927
0.8791582753
0.8611897668
0.8649985278
0.8411442126
0.8645413585
0.8992745435
0.8385329921
0.8877772332
0.8784188502
0.8891609077
0.8977999015
0.8631046138
0.8290785303
0.8344126183
0.8388401299
0.8847105886
0.8960644508
0.8654390074
0.8721939683
0.8337351773
0.8489337531
0.8723982757
0.8489667842
0.8534047814
0.8593978413
0.9026521880
0.8468722327
0.8313452313
0.8835658735
0.8382462105
0.8363128743
0.8291430816
0.8983282513
0.8369026620
0.8601197677
0.8945365357
0.8587490740
0.8483874514
0.8365426252
0.8645811698
0.8823695660
0.8679019930
0.8194808226
0.8229972517
0.8668638494
0.8542559350
0.8570854820
0.8564056290
0.8559158002
0.8181547703
0.8279698821
0.8214811240
0.8665153446
0.8544524708
0.8235117999
0.8374649710
0.8542523158
0.8639066870
0.8466992555
0.8774569302
0.8736151024
0.8714174093
0.8587719990
0.8186448020
0.8709490237
0.8611409692
0.8586968792
0.8561004721
0.8584392583
0.8639610263
0.8189464415
0.8210754672
0.8638500811
0.8278141864
0.8327896284
0.8469950513
0.8354241901
0.8745432700
0.8633757312
0.8611001205
0.8606820768
0.8461048407
0.8232719854
0.8440779569
0.8448318498
0.8847304416
0.8594803422
0.8632970103
0.8308247197
0.8589555959
0.8952093703
0.8543289862
0.8388147162
0.8277490856
0.8671246063
0.8416932461
0.8640341561
0.8342779363
0.8328364349
0.8657209858
0.8550221329
0.8627364891
0.8488529709
0.8413088804
0.8472333883
0.8801047876
0.8550982161
0.8473927553
0.8680644143
0.8228621238
0.8448550217
0.8384190661
0.8569882782
0.8459437404
0.8551757834
0.8983345148
0.8265121761
0.8455777561
0.8448293917
0.8685637678
0.8664536534
0.8399821651
0.8713291555
0.8920169895
0.8334056587
0.8709850183
0.8541184682
0.8530797911
0.8415299908
0.8253332904
0.8192383264
0.8587775453
0.8806751062
0.8632362130
0.8590406111
0.8596426630
0.8467355924
0.8268103030
0.8246824023
0.8763650708
0.8665370837
0.8909759090
0.8793452739
0.8778641420
0.8377454567
0.8762268557
0.8582458939
0.8730169782
0.8736319096
0.8650424710
0.8757451231
0.8321312441
0.8732561664
0.8492838541
0.8216717527
0.8796822723
0.8879312294
0.8774538638
0.8690624524
0.8652584311
0.8803487442
0.8512726617
0.8757224684
0.8584636344
0.8643660545
0.8687571138
0.8714113211
0.8587669849
0.8527199325
0.8201217147
0.8938398722
0.8354474113
0.8510028651
0.8757501392
0.8415586938
0.8515871481
0.8590402184
0.8521795349
0.8909776694
0.8508219821
0.8444819489
0.8897495416
0.8613096555
0.8415603612
0.8397197411
0.8460328932
0.8600451476
0.8717744718
0.8605840334
0.8744896232
0.8452357970
0.8539239679
0.8455785043
0.8512004234
0.8709847854
0.8422057749
0.8801632548
0.8806719514
0.8664862553
0.8879308696
0.8652591147
0.8938432760
0.8539207738
0.8377480800
0.8688405475
0.8735224849
0.8927241038
0.8718028380
0.8667532937
0.8743987356
0.8467352887
0.8707189090
0.8737927343
0.8712134195
0.8728573649
0.8762740325
0.8606746463
0.8867399810
0.8576064613
0.8417964816
0.8738983961
0.8624245093
0.8681231899
0.8503439936
0.8741251585
0.8664526783
0.8762241819
0.8636993867
0.8550535816
0.8527187845
0.8253400061
0.8523127481
0.8551814566
0.8557235654
0.8486729183
0.8592032625
0.8494406790
0.8232729916
0.8858911798
0.8323842556
0.8511145293
0.8515838224
0.8535788977
0.8662244334
0.8384534084
0.8584616090
0.8725306852
0.8509258193
0.8772541248
0.8627468141
0.8470416756
0.8228626874
0.8746705056
0.8589802029
0.8684111945
0.8707652263
0.8652374734
0.8763848749
0.8265146518
0.8500608578
0.8885983925
0.8803743529
0.8641107742
0.8561268897
0.8576579461
0.8761076670
0.8702453969
0.8308412713
0.8768102398
0.8750963598
0.8725411457
0.8611094537
0.8648488353
0.8766782571
0.8803111284
0.8677206089
0.8724481191
0.8511126641
0.8739284580
0.8537597848
0.8801602421
0.8557205023
0.8455768055
0.8717709420
0.8684004875
0.8547864880
0.8831503281
0.8897510874
0.8619598991
0.8692928315
0.8787249837
0.8867398825
0.8784500899
0.8750936596
0.8735798197
0.8792193391
0.8417955339
0.8613070909
0.8503411727
0.8762701157
0.8679847350
0.8832946919
0.8608739002
0.8517809297
0.8927273211
0.8776371048
0.8725830588
0.8540056606
0.8789569708
0.8627192973
0.8606719230
0.8773809688
0.8764363664
0.8698189598
0.8647722339
0.8828267706
0.8749589002
0.8658201090
0.8573623747
0.8513286252
0.8667507366
0.8629470635
0.8683950432
0.8850459464
0.8778941181
0.8568385075
0.8734132553
0.8863347508
0.8585875454
0.8649021399
0.8610311058
0.8806292988
0.8717979429
0.8856553666
0.8892364206
0.8664817445
0.8789631882
0.8713403897
0.8767063981
0.8690697249
0.8755770475
0.8773387794
0.8968794086
0.8905282446
0.8694366028
0.8734187637
0.8741385345
0.8759795124
0.8787199643
0.8729616116
0.8816052100
0.8933984078
0.8871926769
0.8759191700
0.8752952054
0.8700251444
0.8727019875
0.8753119580
0.8804413464
0.8871456961
0.8657114925
0.8731471175
0.8657512065
0.8928877145
0.8963615656
0.8694470809
0.8832986287
0.8761994537
0.8648413882
0.9001640977
0.8728506773
0.8894246995
0.8740307412
0.8743537588
0.9006366219
0.8724419346
0.8960520574
0.8936783284
0.8741184933
0.8879737265
0.8719324188
0.8692601172
0.8842661044
0.8855586675
0.8778128916
0.9018423014
0.9037949115
0.9038059518
0.9018494039
0.9064805552
0.9061932901
0.9065200237
0.9062717696
0.9038557456
0.9059615362
0.9049201453
0.9038564471
0.9059640981
0.9034178763
0.9052478956
0.9063104589
0.9062981877
0.9064971640
0.9037285073
0.9040060926
0.9063670628
0.9063025174
0.8996821773
0.9070013069
0.9004187682
0.9068176741
0.9053663925
0.9007389941
0.9067149400
0.9060993335
0.8995977428
0.9005138073
0.9070289374
0.8958128553
0.8983951365
0.9063390226
0.9072462558
0.9037557953
0.9068430062
0.8938437444
0.9001110455
0.8908021591
0.9064013348
0.8737121462
0.9065407964
0.8978941214
0.8920188693
0.8737547901
0.9068352776
0.9004393151
0.9020187912
0.9070316905
0.9069940870
0.9070423905
0.8962341125
0.9067308597
0.8969779171
0.9080708225
0.8996216487
0.9073610122
0.8984178676
0.8949871844
0.8810481707
0.9093817846
0.8958326440
0.9043358698
0.9081058064
0.8937040910
0.8811994039
0.9059982237
0.8988095491
0.8918377098
0.8759586508
0.8882127010
0.9065474111
0.9037626346
0.8737516068
0.8972384144
0.9100947794
0.8908357594
0.8962567217
0.9067387439
0.8917356118
0.8966844761
0.8950124371
0.9080861073
0.9059180980
0.8810330168
0.9019342442
0.8870645888
0.8891857915
0.9046462981
0.9091272356
0.9000309819
0.8921867841
0.8874510427
0.9083480710
0.8997753133
0.8972277849
0.9081656794
0.9052175551
0.8915149315
0.8934381437
0.8956008530
0.9045661632
0.8807327100
0.9136221896
0.8717842061
0.8811462838
0.9065591665
0.9169462200
0.9101096419
0.8918587964
0.9100156166
0.9084821207
0.8981301801
0.9023209915
0.8760052391
0.8851649205
0.9134095383
0.9097303804
0.9037860622
0.9154109484
0.9059269225
0.9046519055
0.8679383483
0.8874345196
0.8876063497
0.9022601785
0.8819147445
0.8957491360
0.8954950865
0.8966554633
0.8862038393
0.8758154159
0.8809431914
0.8882447078
0.8916887658
0.8876029412
0.9154041319
0.9162610579
0.8852106428
0.9150826146
0.8981077657
0.9086027392
0.9038279978
0.8955799693
0.8549316206
0.8754443096
0.9081748303
0.9097465379
0.8979186334
0.8997987625
0.9125968168
0.9136287625
0.9169468247
0.8841689316
0.8827557081
0.9046142489
0.8718439268
0.8907062749
0.9052196057
0.8997590262
0.8565731313
0.9111766250
0.8811875564
0.9123364651
0.8875734171
0.9125369518
0.8686714530
0.8882158084
0.8649132369
0.9022550728
0.9168920166
0.8701364283
0.9128900271
0.8765711900
0.8752369438
0.8937119538
0.8769614163
0.9116806314
0.8648284077
0.9170288285
0.8612217552
0.8938757322
0.8818485706
0.9133725286
0.8649936343
0.8679553804
0.8880830536
0.8827237503
0.9092622316
0.8931795381
0.9150825242
0.9046394349
0.9091201544
0.8979050411
0.8516733358
0.8816179377
0.9038245775
0.9099094104
0.8755044150
0.9109129877
0.8549875718
0.8870890709
0.8690984187
0.9125957217
0.9128793185
0.8880510244
0.8846334741
0.9170257151
0.8548678177
0.8637585745
0.9015936111
0.9116942585
0.9058300052
0.8938534202
0.8767962551
0.8619435846
0.8623635192
0.9145122033
0.8891447773
0.9146315444
0.8786808631
0.9107298853
0.8703508894
0.9072698344
0.8675154142
0.8649731137
0.9108761989
0.8543583646
0.8771520897
0.9031939410
0.8997627611
0.9075527631
0.9070487156
0.9056027622
0.8614717678
0.8896134976
0.9012754027
0.8924676907
0.9110133666
0.9036991235
0.9145116998
0.9041741381
0.8883982163
0.8816132673
0.8999365583
0.8711225867
0.8976604904
0.8705821480
0.8845905970
0.9058463733
0.9015757155
0.9024485844
0.9080516583
0.9080909669
0.8973647610
0.9057328392
0.8557073467
0.8477104811
0.8657951278
0.9097398943
0.9009301919
0.9032077710
0.9012364920
0.9063447160
0.8976827658
0.9002114526
0.9145209208
0.9070078314
0.8817421445
0.9095414879
0.8771655502
0.9037630023
0.9114777817
0.9026090612
0.9075400663
0.9110193280
0.9036436444
0.8468716092
0.9090135911
0.8448617059
0.8587516839
0.8895737907
0.8976151254
0.9023962943
0.9033861957
0.9006806626
0.8981306946
0.9134373709
0.8921854989
0.8706659180
0.8955510942
0.9076941901
0.9119974436
0.9042428848
0.9079668432
0.9009370120
0.8913800768
0.9161887180
0.9002264464
0.9114998716
0.8951662465
0.9087545839
0.9009078925
0.8782331459
0.9090332031
0.9108227644
0.8722004663
0.8567049837
0.8658872515
0.9108623064
0.9060593290
0.8901403125
0.9082954828
0.8421717233
0.9079701480
0.9083075168
0.8974814414
0.9086833879
0.8826563596
0.9102495986
0.8728002095
0.9134071641
0.9004268280
0.9012121409
0.8873018128
0.8501575663
0.8980674353
0.8965459363
0.8971349942
0.8739033922
0.9079259208
0.9050038177
0.9150604153
0.9079933680
0.8588671873
0.9033941259
0.8895416224
0.8449145089
0.9119575976
0.8870599050
0.9098684800
0.9006501036
0.8827282377
0.9068526335
0.8695489061
0.9114071329
0.8490337463
0.9083149228
0.9108389408
0.8915167832
0.8816462369
0.8684621791
0.8877043724
0.8798339802
0.8960306598
0.9092231222
0.8722091445
0.9083368340
0.8567842872
0.9101429982
0.9098932214
0.8936835353
0.9086461176
0.8838122949
0.9128293505
0.8927019137
0.8782255174
0.9115748574
0.9137714836
0.8924281982
0.8772778014
0.9050133719
0.8402656692
0.8872856602
0.9091736021
0.9079564487
0.8502399018
0.9134786005
0.8965184959
0.8729628756
0.9071903922
0.9098299656
0.8721228532
0.8399956679
0.8550053037
0.8808033777
0.9115844939
0.8914917108
0.8788360669
0.9101521366
0.8684515603
0.9127984820
0.8822088708
0.9137184115
0.8816320455
0.8490998633
0.9111411929
0.8596118420
0.9058226737
0.9098261570
0.8899719009
0.8621475131
0.8694155724
0.9122341351
0.8343019182
0.8550001960
0.9140814151
0.9174319837
0.8757577830
0.8601410726
0.8403393869
0.9128268887
0.9197635093
0.9092007338
0.8516221089
0.8565226267
0.8577543500
0.9080291125
0.9137281129
0.9111558741
0.9150124583
0.8694333002
0.8822113740
0.9086444942
0.8800199881
0.8659873265
0.9057810475
0.8538169702
0.8400614101
0.9153894748
0.9168554313
0.8705225433
0.9072153007
0.8411671773
0.8554491378
0.8604365284
0.8549782065
0.9189104512
0.8564975256
0.8626032822
0.8557918828
0.8357062606
0.9170604780
0.8630122335
0.8318408499
0.9066455022
0.8899767895
0.9044837112
0.8973359973
0.8449030648
0.9168607457
0.8329991528
0.9125568684
0.8766463608
0.9027310490
0.9080388082
0.8471852779
0.9138836533
0.9140684857
0.8800258490
0.9061465285
0.9113925643
0.8942144708
0.9005958467
0.8370667514
0.8840623127
0.9038008816
0.8576550996
0.9154010530
0.9125822109
0.9086537725
0.8619329525
0.8281734920
0.8349436184
0.8625934287
0.8796607832
0.8676878331
0.8557629922
0.8581498836
0.8248288789
0.8610746190
0.8842369587
0.8767532258
0.8361385507
0.8249654218
0.8848708225
0.8563708491
0.8700080113
0.8286196619
0.8556236524
0.8770959209
0.8684599022
0.8460192946
0.8535894212
0.8844963465
0.8990868046
0.9110479066
0.8699718045
0.8414154685
0.9027355857
0.8330241606
0.9044910828
0.9097940022
0.8283428158
0.8935262929
0.9030881660
0.9125667850
0.8813455399
0.8996569565
0.8925432653
0.9081932768
0.8639117857
0.8895907512
0.9000004644
0.9140831665
0.8779299957
0.8511468832
0.9055601530
0.8428879970
0.8323181159
0.8967950835
0.9084096706
0.8876420181
0.9005986273
0.8962690421
0.9114077268
0.8766166846
0.8608794273
0.8252347112
0.8197670324
0.8263447516
0.8463383993
0.8346342744
0.8770908959
0.8679884922
0.8600559189
0.8266580633
0.8555515836
0.8739096831
0.8687442529
0.8777595273
0.8733570936
0.8619345931
0.8874441335
0.8540376930
0.8656321172
0.8221059938
0.8210873451
0.8353806991
0.8582223000
0.8285466377
0.8844233356
0.8767607022
0.8547441681
0.8281986131
0.8600995599
0.8664235527
0.8758121379
0.8742306791
0.8845246351
0.8439002827
0.8791558364
0.8952402344
0.9050589926
0.9098048723
0.8992703990
0.8878547734
0.8466959640
0.8273174282
0.8891665513
0.8283712228
0.8958748861
0.8645331971
0.8385219989
0.8750402541
0.8990874802
0.8847145816
0.8960648021
0.9084240174
0.9049421903
0.8922678893
0.8568018748
0.8313302701
0.8928243136
0.8368794718
0.8967929148
0.8723900876
0.8468648423
0.8821563662
0.9021377833
0.8189271313
0.8423377250
0.8210355595
0.8549642952
0.8215687534
0.8709819573
0.8654386084
0.8559086685
0.8795952081
0.8742146842
0.8707769808
0.8584131516
0.8261173406
0.8664936385
0.8373424943
0.8248785792
0.8586168528
0.8663568001
0.8181297937
0.8323836223
0.8278909493
0.8594795001
0.8252595036
0.8701999026
0.8539812348
0.8746103410
0.8792793537
0.8645560011
0.8542874088
0.8229827147
0.8482630197
0.8213518648
0.8668569009
0.8739074893
0.8633701972
0.8277542610
0.8294586592
0.8460898436
0.8829695565
0.8952385137
0.8604905455
0.8646618223
0.8606796714
0.8329024905
0.8388094478
0.8693927232
0.8422932361
0.8594702321
0.8635678804
0.9015649736
0.8425086813
0.8273398369
0.8847343410
0.8745406000
0.8919275179
0.8327922169
0.8414297295
0.8328414617
0.8952066723
0.8330255357
0.8556069737
0.8912930527
0.8642220546
0.8266139133
0.8333971765
0.8407117969
0.8878865836
0.8983790890
0.8576268102
0.8652456257
0.8680600701
0.8317126798
0.8455754818
0.8768516400
0.8478122563
0.8558940210
0.8600462950
0.9049548906
0.8516533899
0.8341196608
0.8886336978
0.8801068572
0.8928205085
0.8350226947
0.8390363509
0.8286752818
0.9010961876
0.8367754652
0.8612798344
0.8920175338
0.8638575956
0.8582181072
0.8299309493
0.8549743322
0.8606825616
0.8676581043
0.8320718100
0.8649313969
0.8793475274
0.8792872292
0.8726956029
0.8650450250
0.8732627799
0.8653602120
0.8216638420
0.8701843674
0.8208165930
0.8575480317
0.8713314943
0.8517834367
0.8545214674
0.8530786895
0.8511980739
0.8608366204
0.8196332093
0.8331027140
0.8690343145
0.8201106924
0.8687634340
0.8541293083
0.8268035371
0.8437299266
0.8561301765
0.8632164395
0.8414478730
0.8707721741
0.8810264207
0.8810254216
0.8741200904
0.8664983218
0.8725234829
0.8615139858
0.8192306107
0.8733931012
0.8261347095
0.8641166027
0.8647746997
0.8587815827
0.8590961946
0.8596077778
0.8183691312
0.8247078769
0.8665432980
0.8246538783
0.8297556226
0.8605002199
0.8508993884
0.8653230236
0.8444856556
0.8328984807
0.8397254663
0.8439514024
0.8784194293
0.8639165456
0.8501872600
0.8636930722
0.8639103935
0.8512798044
0.8650023501
0.8485526713
0.8214369040
0.8414273803
0.8261743448
0.8417318672
0.8446589146
0.8877735787
0.8614334950
0.8635686036
0.8333834634
0.8624242099
0.8485254974
0.8511994754
0.8595264795
0.8978043610
0.8286304814
0.8556173628
0.8411506938
0.8382437779
0.8440803702
0.8712190663
0.8681241107
0.8261692692
0.8422117130
0.8671357565
0.8422974549
0.8646620675
0.8690851214
0.8912909798
0.8294699189
0.8330120104
0.8337342224
0.8632931644
0.8290765901
0.8654402237
0.8585861830
0.8543243138
0.8634858828
0.8470374404
0.8363089248
0.8392147221
0.8462429737
0.8835625058
0.8604994224
0.8552848294
0.8638522319
0.8485887255
0.8721984074
0.8534210175
0.8223462252
0.8476327005
0.8476351558
0.8434382949
0.8886305775
0.8631045647
0.8654445278
0.8420043003
0.8574245421
0.8458295790
0.8551005982
0.9011056395
0.8237323862
0.8342930523
0.8489786519
0.8489380957
0.8417294819
0.8684066882
0.8665305541
0.8291406385
0.8384713676
0.8635565150
0.8367611590
0.8612893618
0.8718957333
0.8945371748
0.8344213150
0.8317012395
0.8388453693
0.8745230775
0.8544161602
0.8677229058
0.8761135164
0.8664913461
0.8570888168
0.8778603827
0.8468023357
0.8725173083
0.8486757935
0.8264991272
0.8186543443
0.8560962490
0.8803843058
0.8873529742
0.8792838045
0.8837422736
0.8639285071
0.8706934400
0.8622952043
0.8764409818
0.8639782643
0.8757724365
0.8546549278
0.8694212161
0.8638511112
0.8736094805
0.8546544006
0.8546501119
0.8485902658
0.8235200054
0.8278720115
0.8757444060
0.8638441825
0.8631137848
0.8937687253
0.8823681553
0.8323842026
0.8512310622
0.8775538789
0.8744377961
0.8372776351
0.8763952167
0.8549615587
0.8795503426
0.8587666977
0.8725440472
0.8726543130
0.8678878773
0.8776618892
0.8366389245
0.8741141791
0.8487358130
0.8194881036
0.8631089883
0.8789688765
0.8906203370
0.8810228701
0.8845421070
0.8676571564
0.8707715663
0.8687516334
0.8788328944
0.8564785779
0.8775494266
0.8582176358
0.8641356113
0.8665091781
0.8726899163
0.8615089438
0.8670017310
0.8554078049
0.8299416740
0.8215049025
0.8741236311
0.8690281492
0.8969451070
0.8810249526
0.8752194743
0.8338304513
0.8510746716
0.8800383643
0.8757779881
0.8423696631
0.8508642888
0.8619427812
0.8873512344
0.8622957936
0.8512766969
0.8937716293
0.8501875832
0.8488499554
0.8338335653
0.8733976793
0.8424328729
0.8749346443
0.8867599971
0.8750326817
0.8679845042
0.8592714743
0.8378056655
0.8766576951
0.8423703480
0.8673533246
0.8378003565
0.8286748381
0.8446542442
0.8732356153
0.8614247456
0.8576382215
0.8521824354
0.8350209472
0.8679839862
0.8710790703
0.8690036446
0.8604988409
0.8559150310
0.8563946568
0.8739687755
0.8297575123
0.8836105212
0.8439475364
0.8368869201
0.8524787020
0.8615081453
0.8640327050
0.8394470477
0.8731009928
0.8612065161
0.8697946101
0.8390330991
0.8514713547
0.8715550944
0.8459428440
0.8745994500
0.8514726989
0.8626543997
0.8745230071
0.8685835883
0.8412640018
0.8773355348
0.8837395442
0.8601260553
0.8670905615
0.8906207102
0.8687533589
0.8558660001
0.8969511007
0.8462418089
0.8524757523
0.8452403714
0.8372799001
0.8695136008
0.8413037747
0.8745216543
0.8893681695
0.8734247482
0.8642503711
0.8750318705
0.8485898389
0.8719849357
0.8354289522
0.8399772661
0.8473891421
0.8743607276
0.8593958041
0.8605859789
0.8671327734
0.8742106482
0.8733927633
0.8550973800
0.8607739006
0.8718002187
0.8840075883
0.8434327136
0.8715612142
0.8558690636
0.8572341798
0.8432716936
0.8740375825
0.8654397202
0.8713263785
0.8497877616
0.8740317622
0.8569874903
0.8690829214
0.8795477184
0.8641258417
0.8459404256
0.8808460971
0.8845397910
0.8586186764
0.8554071330