<VTKFile type="UnstructuredGrid" version="0.1">
	<UnstructuredGrid>
		<Piece NumberOfPoints="1862" NumberOfCells="3498">
			<CellData>
				<DataArray type="Int32" Name="type" NumberOfComponents="1" Format="ascii">
0
0
0
0
0
0
0
0
0
0
0
0
0
0
0
0
1
0
0
1
0
0
0
0
0
0
0
0
0
0
0
0
0
1
0
0
0
0
0
0
0
0
0
0
0
0
0
0
0
0
1
0
0
0
0
0
0
0
0
0
0
1
0
0
0
0
0
0
0
0
0
0
0
0
0
0
0
0
0
0
0
0
0
0
0
0
0
0
0
0
0
0
0
0
0
0
0
0
0
0
0
0
0
0
0
0
0
0
0
0
0
0
0
0
0
0
0
0
0
0
0
0
0
1
0
0
0
0
0
0
0
0
0
0
0
0
0
0
0
0
0
0
0
0
0
0
0
0
0
0
0
1
0
1
1
0
0
0
0
0
0
0
0
0
0
0
0
0
1
0
1
0
0
0
0
1
0
0
0
0
0
0
0
0
1
1
0
0
0
0
0
1
0
0
0
0
0
0
0
0
1
0
0
0
0
0
0
0
0
0
0
0
0
0
0
0
0
0
0
0
0
0
0
0
0
0
0
0
0
0
0
0
0
1
0
0
0
0
0
0
0
0
0
0
0
0
0
0
0
0
0
0
0
0
0
0
0
0
0
0
0
0
0
0
0
0
0
0
0
0
0
0
0
0
0
0
0
0
0
0
0
1
0
0
0
0
0
0
0
0
0
0
0
0
0
0
0
0
0
0
0
0
0
0
0
0
0
0
0
0
0
0
0
0
0
0
0
0
0
0
0
0
0
0
0
0
0
0
0
0
0
0
1
0
0
0
0
0
0
0
0
0
0
0
0
0
0
0
0
0
0
0
0
0
0
0
0
0
0
0
0
0
0
0
0
0
0
0
0
0
0
0
0
0
0
0
0
0
0
0
0
0
0
0
0
0
0
0
0
0
1
0
0
0
0
0
0
0
0
0
0
0
0
0
0
0
0
0
0
0
0
0
0
0
0
0
0
0
0
0
0
0
0
0
0
0
0
0
0
0
0
0
0
0
0
0
0
0
0
0
0
0
0
0
0
0
0
0
0
0
0
0
0
0
0
0
0
0
0
0
0
0
0
0
0
0
0
0
0
0
0
0
0
0
0
0
0
0
0
0
0
0
0
0
0
0
0
0
0
0
0
0
0
0
0
0
0
0
0
0
0
0
0
0
0
0
0
0
0
0
0
0
0
0
0
0
0
0
0
0
0
0
0
1
0
0
0
0
0
0
0
0
0
0
0
0
0
0
0
0
0
0
0
1
0
0
0
0
0
0
0
0
0
0
0
0
0
0
0
0
0
0
0
0
0
0
0
0
0
0
0
0
0
0
0
0
0
0
0
0
0
0
0
0
0
0
0
0
0
0
0
0
0
0
0
0
0
1
0
0
0
0
0
0
0
0
0
0
0
0
0
0
0
0
0
0
0
0
0
0
0
1
0
0
0
0
0
0
0
0
0
0
0
0
0
0
0
0
0
0
0
1
0
0
0
1
0
0
0
0
0
0
0
0
0
0
0
0
0
0
0
0
0
0
0
0
0
0
0
0
0
1
0
0
0
0
0
0
0
1
0
0
0
0
0
0
0
0
0
0
0
0
0
0
0
0
0
0
0
0
0
0
0
0
0
0
1
0
0
0
0
0
0
0
1
0
0
0
0
0
0
1
0
0
0
0
0
0
0
0
0
0
0
0
0
0
0
0
0
0
0
0
0
0
0
0
0
0
0
0
0
0
0
0
0
0
0
0
0
0
1
0
0
0
0
0
1
0
0
0
0
0
0
0
1
0
0
0
0
0
0
0
0
0
0
0
0
0
1
0
0
0
0
0
0
0
0
0
0
0
0
0
0
0
0
0
0
0
0
0
0
0
0
0
0
0
0
0
0
0
0
0
0
0
0
0
0
0
0
0
0
0
0
0
0
0
0
0
0
0
0
0
1
0
0
0
0
0
0
0
0
0
0
0
0
0
0
0
0
0
0
0
1
0
0
0
0
0
0
0
0
0
1
0
0
0
0
0
0
0
0
0
0
0
0
0
0
0
0
0
0
0
0
0
0
0
0
0
0
0
0
0
1
0
1
0
0
0
0
0
0
0
0
0
0
0
0
0
0
0
0
0
0
0
0
0
0
0
0
0
0
0
1
0
0
0
1
0
0
0
0
0
0
0
0
0
0
0
0
0
0
0
0
0
0
0
0
0
0
0
0
0
0
0
0
1
0
0
0
0
0
0
0
0
0
0
0
0
0
0
0
0
0
0
0
0
0
0
0
0
0
1
0
0
0
0
0
0
0
0
0
0
0
0
0
0
0
0
0
0
0
0
0
0
0
1
0
0
0
0
0
0
1
0
0
0
0
0
0
0
0
0
0
0
1
0
0
0
0
0
0
0
0
0
0
0
0
0
0
0
0
0
0
0
0
1
0
0
0
0
0
0
0
0
0
0
0
1
0
0
0
0
0
0
0
0
0
0
0
0
0
0
0
0
0
0
0
0
0
1
0
0
0
0
0
0
0
0
0
1
1
0
1
0
1
0
0
0
0
0
0
0
0
0
0
0
1
0
0
0
0
0
1
1
0
0
0
0
0
0
1
0
0
0
0
0
1
1
1
0
0
0
0
0
0
0
0
0
0
0
0
1
1
0
0
1
0
0
0
0
0
1
0
0
0
1
0
1
0
0
0
0
0
0
0
1
0
0
0
0
0
0
0
1
0
0
1
0
0
0
0
0
0
0
0
0
0
0
0
0
0
0
1
0
0
0
0
0
0
0
0
0
0
0
0
0
0
0
0
0
0
0
0
0
0
0
0
0
0
0
0
0
0
0
0
0
0
0
0
1
0
0
0
0
0
0
1
0
0
0
1
0
0
0
0
0
0
0
0
0
0
0
1
0
0
0
0
0
0
0
0
0
0
0
0
0
0
0
0
0
0
0
0
0
0
0
0
0
0
0
0
0
0
0
0
0
0
0
0
0
0
0
0
1
1
0
0
0
0
0
0
0
0
0
0
0
0
0
1
0
0
0
0
0
0
0
0
0
0
0
0
0
0
0
0
0
0
0
0
0
0
0
0
0
0
0
0
0
0
0
0
0
0
0
0
0
0
0
0
0
0
0
0
0
0
0
0
0
0
0
0
0
0
0
0
0
0
0
0
0
0
0
0
0
0
0
0
0
0
0
0
1
1
0
0
0
0
0
0
0
0
1
0
0
0
0
0
0
0
0
0
0
0
0
0
0
0
0
0
0
0
0
0
0
0
1
0
0
0
0
0
0
0
0
0
0
0
0
0
0
0
0
1
0
0
0
0
0
0
0
0
0
0
0
0
0
0
0
0
0
0
0
0
0
0
0
0
0
0
0
0
0
0
0
0
0
0
0
0
0
0
0
0
0
0
0
0
0
0
0
0
0
0
0
0
0
0
0
0
0
0
0
0
0
0
0
0
0
0
0
0
0
0
0
0
0
0
0
0
0
0
0
0
0
0
0
0
0
0
0
0
0
0
1
1
0
0
0
0
0
1
0
0
0
0
0
0
0
0
0
0
0
0
1
0
0
0
0
0
0
0
0
0
0
0
0
0
0
0
0
0
0
0
0
0
0
0
0
0
0
0
0
0
0
0
0
0
0
0
0
0
0
0
0
0
0
0
0
0
0
0
0
0
0
0
0
0
1
0
1
0
0
0
0
0
0
0
0
0
0
0
0
0
0
0
0
0
0
1
0
0
0
0
0
0
0
0
0
0
0
0
0
0
0
0
0
0
0
0
0
0
0
0
0
0
0
0
0
0
0
0
0
0
0
0
0
0
0
0
0
0
0
0
0
0
0
0
0
0
0
0
0
0
0
0
0
0
0
0
0
0
0
0
0
0
0
0
0
0
1
0
0
0
0
0
0
0
0
0
0
1
0
0
0
0
0
0
0
0
0
0
0
0
0
0
0
0
0
0
0
0
0
0
0
0
0
0
0
0
0
0
0
0
0
0
0
0
0
1
0
0
0
0
0
0
0
0
0
0
0
0
0
0
0
0
0
0
0
0
0
0
0
0
0
0
0
0
0
0
0
0
0
0
0
0
0
0
0
0
0
0
0
0
0
0
0
0
0
0
0
0
0
0
0
0
0
0
0
0
0
0
0
0
0
0
0
0
0
0
0
0
0
0
0
0
0
0
0
0
0
1
0
0
0
0
0
0
0
0
0
0
0
0
0
0
0
0
0
0
0
0
0
0
0
0
0
0
0
0
0
0
0
0
0
0
0
0
0
0
0
0
0
0
0
0
0
0
0
0
0
0
0
0
0
0
0
0
0
0
0
0
0
0
0
0
0
0
0
0
0
0
0
0
0
0
0
0
0
0
0
0
0
0
0
0
0
0
0
0
0
0
0
0
0
0
0
0
0
0
0
0
0
0
0
0
0
0
0
0
0
0
0
0
0
0
0
0
0
0
0
0
0
0
0
1
0
0
0
0
0
0
0
0
0
0
0
0
0
0
0
0
0
0
0
0
0
0
0
0
0
0
0
0
0
0
0
0
0
0
0
0
0
0
0
0
0
0
0
0
0
0
0
0
0
0
0
0
0
0
0
0
0
0
0
0
0
0
0
0
0
0
0
0
0
0
0
0
0
0
0
0
0
0
0
0
0
1
0
0
0
0
0
0
0
1
0
0
0
0
0
0
0
0
0
0
0
0
0
0
0
0
0
0
0
0
0
0
0
0
0
0
0
0
0
0
0
0
0
0
0
0
0
1
0
0
0
0
0
0
0
0
0
0
0
0
0
0
0
0
0
0
0
0
0
1
0
0
0
0
0
0
0
0
0
0
0
0
1
1
0
0
0
0
0
0
0
0
0
0
0
0
0
0
0
1
1
0
1
0
0
0
0
0
0
0
0
0
1
0
0
0
0
0
0
1
0
0
0
0
0
0
0
0
0
0
1
0
0
0
0
1
0
1
0
0
0
0
0
0
0
1
0
0
0
1
0
0
0
1
0
1
1
0
0
1
1
0
0
0
1
0
0
0
1
0
0
0
0
0
0
0
0
0
1
0
0
0
0
0
0
1
0
0
0
0
0
0
0
0
0
0
0
0
0
0
0
0
0
0
0
0
0
0
0
0
0
0
0
1
0
0
1
0
0
0
0
0
0
0
0
0
0
0
0
0
0
0
0
0
0
1
0
0
1
0
0
0
0
0
0
0
0
0
0
0
1
0
0
1
0
0
0
0
0
0
0
0
0
0
0
1
1
0
0
0
0
0
0
0
0
0
0
0
0
1
0
0
0
0
0
0
0
0
0
0
0
0
0
0
0
0
0
1
0
0
0
0
0
0
0
0
0
0
0
0
0
0
0
0
0
1
0
0
0
0
0
0
0
0
0
0
0
0
0
0
0
0
0
0
0
0
0
0
0
0
0
0
0
0
0
0
0
0
0
0
0
0
0
0
0
0
1
0
0
0
0
0
0
0
0
0
0
0
0
0
0
0
0
0
0
0
0
0
0
0
0
0
0
0
0
0
0
0
0
0
0
0
0
0
0
0
0
0
0
0
0
0
1
0
0
0
0
0
0
0
0
0
0
0
0
0
0
0
0
0
0
0
0
0
0
0
0
0
0
0
0
0
0
0
0
0
0
0
0
0
0
0
0
0
0
0
0
0
0
0
1
0
0
0
0
0
0
0
0
0
0
1
0
0
0
0
0
0
0
0
0
0
0
0
0
0
0
1
0
0
1
0
0
0
0
0
0
0
0
0
0
0
0
0
0
0
0
0
0
0
0
0
0
0
1
0
0
0
0
0
0
0
0
0
0
0
0
0
0
0
0
0
0
0
0
0
0
0
0
0
0
0
0
0
0
0
0
0
0
0
1
0
0
0
0
0
0
0
0
0
0
0
0
0
0
0
0
0
0
0
0
0
0
0
0
0
0
0
0
0
0
0
0
0
0
0
0
0
0
0
0
0
0
0
0
0
0
0
0
0
0
0
0
0
0
0
0
0
0
0
0
0
0
0
0
0
0
0
0
0
0
0
0
0
0
0
0
1
0
0
0
0
0
0
0
0
0
0
0
0
0
0
0
0
0
0
0
0
0
0
0
0
0
0
0
0
0
0
0
0
0
0
0
0
0
0
0
1
0
0
0
0
0
0
0
0
0
0
0
0
1
1
0
0
0
0
0
0
0
0
0
0
0
0
0
0
0
0
0
0
0
0
0
0
0
0
0
0
0
0
0
0
0
0
0
0
0
0
0
0
0
0
0
0
0
0
0
0
0
0
0
0
0
0
0
0
0
0
0
0
0
0
0
0
0
0
0
0
0
0
0
0
0
0
0
0
0
0
0
0
0
0
0
0
0
0
0
0
0
0
0
0
0
0
0
0
0
0
0
0
0
0
0
1
0
1
0
0
0
0
0
0
0
1
1
1
1
0
0
0
0
0
0
0
0
0
0
0
0
0
0
0
0
0
0
0
0
0
0
0
0
0
0
0
0
1
1
0
0
0
0
0
0
0
0
0
0
0
0
0
0
0
0
0
0
1
0
0
0
0
0
0
0
1
1
0
1
1
0
0
1
0
0
0
0
0
0
0
1
0
1
0
0
0
0
0
0
0
0
0
0
0
0
0
0
0
0
0
0
0
0
0
0
0
0
0
0
0
1
1
0
0
0
1
1
0
0
0
0
1
0
0
1
0
1
0
0
0
0
0
1
0
0
0
1
0
0
0
0
0
0
0
0
0
0
0
0
0
0
0
0
0
0
0
0
0
0
0
0
0
0
0
1
0
0
0
0
0
0
1
0
0
0
0
0
0
0
0
0
0
0
0
0
0
0
0
0
0
0
0
0
0
0
0
0
0
0
0
0
1
0
1
0
0
0
0
0
0
0
1
0
0
0
0
0
0
0
0
0
0
0
1
0
0
0
0
0
0
0
0
0
1
0
0
0
0
0
0
0
1
0
0
0
0
0
0
0
1
0
0
0
0
0
0
0
0
0
0
0
0
0
0
0
0
0
0
0
1
0
1
0
0
0
0
0
1
0
0
0
0
0
0
0
0
0
0
0
0
0
0
0
0
0
0
0
0
0
0
0
0
0
1
0
1
0
0
0
0
0
0
0
0
0
1
0
0
0
0
0
1
0
0
0
0
0
0
0
0
0
0
0
0
0
0
0
1
0
0
0
0
0
0
0
0
1
0
0
0
0
0
0
0
0
0
0
0
0
0
0
0
0
0
0
0
0
0
0
0
0
0
0
0
0
0
0
1
0
0
0
0
0
0
0
0
0
0
0
0
0
0
0
0
1
0
0
0
0
0
0
0
0
1
0
0
0
0
0
0
0
0
0
1
0
0
0
0
0
1
0
0
0
0
0
0
0
0
0
0
0
0
0
0
0
0
0
0
0
1
0
0
0
0
0
0
1
0
0
0
0
0
0
0
0
1
0
0
0
0
0
0
0
0
0
0
0
0
0
0
1
0
0
1
0
0
0
1
0
0
0
0
0
0
0
0
0
0
0
0
0
0
0
0
1
0
0
0
0
0
0
0
0
0
0
1
0
1
0
0
0
0
0
0
1
0
0
0
0
0
0
0
0
0
0
0
0
0
0
0
0
0
0
0
0
0
0
0
0
0
0
0
1
1
0
0
0
0
0
0
1
0
0
0
0
0
0
0
0
0
0
0
0
0
1
0
0
0
0
0
0
0
1
0
0
0
0
0
0
0
0
0
0
0
0
0
0
0
0
0
0
0
0
0
0
0
0
0
0
0
1
0
0
0
0
0
0
0
0
0
0
1
0
0
1
0
0
0
0
0
0
0
0
0
0
0
0
0
0
0
0
0
0
0
0
0
0
0
0
0
0
0
0
0
1
0
0
0
0
0
0
0
1
0
0
0
0
0
0
0
1
0
0
0
0
1
0
0
0
0
0
0
0
0
0
0
0
1
0
1
0
0
0
1
0
				</DataArray>
				<DataArray type="Float64" Name="h" NumberOfComponents="1" Format="ascii">
0.7049441324
0.7048804629
0.7346007223
0.7207110255
0.7327377709
0.7311106043
0.7250555420
0.7071420101
0.7201017808
0.6953678203
0.7155832791
0.7305733319
0.6908871527
0.7101289653
0.7035791647
0.6669984980
0.7267256540
0.6908814165
0.6979453501
0.7157971984
0.7436115951
0.6784567174
0.7039731641
0.7405803247
0.7217506462
0.6616758249
0.6667032133
0.7134396581
0.7212777577
0.7049818181
0.7113505972
0.7122696762
0.6673485413
0.7381049082
0.7627881849
0.7371838831
0.7554379108
0.6891609023
0.6980681343
0.7445768073
0.7280905527
0.7381334551
0.6802247999
0.7106153028
0.7424557800
0.7163293124
0.7005413280
0.7683998032
0.8203726705
0.7815865130
0.7495594177
0.7296796108
0.7201110596
0.7633996850
0.7462877066
0.6556803272
0.7288678490
0.7787514244
0.7780638713
0.7697565033
0.7927917768
0.7903560965
0.8085896990
0.7373868427
0.7055516550
0.7189766886
0.7460598278
0.7815776247
0.7882070419
0.7864337999
0.7815106621
0.7531402944
0.6629688098
0.7692374736
0.7751336529
0.6105012814
0.7784085449
0.7894487988
0.7746574342
0.6644700058
0.7998600059
0.7293905811
0.9180909742
0.7535595413
0.6315287961
0.6516540047
0.8016687031
0.7165607408
0.7875621734
0.8881969285
0.8028411383
0.6427378169
0.7936398995
0.8427474756
0.6910484271
0.6807348300
0.6773052399
0.6582563943
0.6874767576
0.8018335606
0.9006241608
0.8017332928
0.7268631884
0.7772426938
0.6826334605
0.7097995165
0.6365715384
0.8496001891
0.7859996560
0.7164361201
0.8104672077
0.8599136714
0.7978088411
0.8052973755
0.7538139945
0.8524914920
0.7472933805
0.6926137621
0.8404172288
0.7743831215
0.6873226887
0.7083544596
0.5960071490
0.6917018391
0.7962492222
0.8611607839
0.7679149527
0.6882045628
0.8239152432
0.8728782577
0.8197540787
0.6677389565
0.7833945329
0.8315346747
0.6961263848
0.8217581178
0.6548977718
0.8554925825
0.8077560591
0.6484671672
0.6836247637
0.6946004028
0.8309287004
0.6440699504
0.6273118465
0.8108145681
0.6503795421
0.9489652983
0.6898100615
0.9719676051
0.6536816601
0.8489071108
0.8752510272
0.9958809326
0.8043589903
0.9000409866
0.9249070849
0.6791085261
0.9718592832
0.6829671953
0.6384850492
0.9456876533
0.6464609443
0.6805185728
0.6834633802
0.9247413179
0.6348287180
0.6435427927
0.6869138636
0.9158447611
0.8965075939
0.6863169348
0.9675089009
0.6751068061
0.6131500888
1.0510971408
0.6294811382
0.9384238382
1.0362778998
0.6779241740
0.9094057455
0.5886710454
0.6808346535
0.5811244760
0.6855318522
0.6847700651
0.6176933962
1.0132703160
0.6862906145
0.6886476289
0.5622871060
1.0261788658
0.6833276709
0.5932183365
1.0421598156
0.9408327704
0.6673330322
0.5451491158
0.5689190473
0.9593058518
0.6881692040
0.5928815457
0.6863243162
1.0055355527
0.5429259305
0.6681472442
0.6305223075
0.6451063765
0.5559993756
0.6062204762
0.5274607523
0.6852548892
0.6671674313
0.6711682152
0.6377039471
0.5144208706
0.6214648955
0.6608925549
0.5531723853
0.6776178788
0.5565520958
0.8508527561
0.5822640202
0.7415297865
0.5885683554
0.9221384723
0.9087582042
0.6536583706
0.5552655639
0.8883990465
0.9619758308
0.7982610750
0.6208172195
0.9370153257
0.9189508947
0.6924896538
0.5049113581
0.5997558759
0.6806021308
0.5487128037
0.4763879518
0.6246838307
0.6545027096
0.5802700644
0.6357288782
0.6179379878
0.6617993900
0.5220479159
0.6138600867
0.6447063219
0.5786055739
0.4889482374
0.6530806226
0.5049213008
0.4821830411
0.6574177034
0.6032553341
0.6275164367
0.6711694338
0.7778572543
0.5156932813
0.5770349485
0.6388707444
0.7363824350
0.6015768365
0.9098873873
0.8983028764
0.5365470186
0.9150403659
0.8477443129
0.8919864607
0.5504953691
0.8759827954
0.6703058677
0.7188463846
0.5451426339
0.6068187295
0.6805667867
0.7979355505
0.5699346576
0.8986001737
0.9035149223
0.9097791374
0.8977294367
0.8778443225
0.8347728105
0.6331933604
0.5533457673
0.6457740143
0.6361271449
0.5783508184
0.4682935927
0.5970263436
0.6123880569
0.4842943448
0.4458079198
0.5157447292
0.5789501509
0.6237241740
0.6574171291
0.6386303143
0.5984070747
0.4682853876
0.4657860322
0.4835079240
0.5197612574
0.4425853431
0.5496712411
0.6346602991
0.5729919342
0.6600916647
0.6340079815
0.8926397263
0.5298024349
0.8880042867
0.7809215110
0.4565453259
0.8708883655
0.8913290664
0.4856199039
0.7428577075
0.5909131577
0.8547528316
0.8934373659
0.6020229494
0.6213910082
0.6796923014
0.8922624707
0.7150836028
0.8370646748
0.8865705625
0.8920701007
0.8909064546
0.5426561874
0.8084818716
0.5612778327
0.8782329006
0.5235520169
0.9180213720
0.4330493438
0.4331541545
0.4565094021
0.6240314983
0.4488008004
0.5588782880
0.4966342403
0.5793666394
0.6123818031
0.9237923295
0.6123960698
0.4634584840
0.8404992968
0.5554621920
0.6107682818
0.9342135272
0.4613801571
0.6418685652
0.4165553701
0.4875934688
0.9109028956
0.9125504887
0.9314544168
0.6386259945
0.4353484870
0.4761830843
0.5310651070
0.5739504601
0.6023562342
0.6731617503
0.6137523220
0.7633979080
0.9335617196
0.5965784600
0.8954322637
0.7930196748
0.7545856475
0.8919106923
0.4649134112
0.8940176406
0.5748093769
0.5328277505
0.8759372331
0.8873123968
0.4169426395
0.8672515713
0.4378784719
0.5895006918
0.6593968387
0.6339170956
0.3943049620
0.8926635656
0.5465708901
0.7209205391
0.3839703529
0.8969654335
0.8238607669
0.4379078464
0.4215862863
0.4158506819
0.3420809688
0.6019998242
0.8871259834
0.3586616431
0.8480395737
0.3371118784
0.8901054661
0.8864808703
0.5619379452
0.6185830668
0.3770904083
0.6837886747
0.5944031181
0.8775950480
0.6237518826
0.4673124839
0.9246231722
0.9069171376
0.4167836520
0.8931333509
0.6016547906
0.5835023170
0.5201093480
0.5345370604
0.9199949981
0.9365682060
0.7421818155
0.9089075063
0.5969617668
0.9265419950
0.4431829526
0.6333948515
0.9460398643
0.8555702061
0.9376487042
0.6793738880
0.7539703550
0.9600693840
0.8989527899
0.9111394501
0.5857533909
0.6344560920
0.7794556460
0.5022863829
0.9384541684
0.6226386609
0.4365929207
0.6258896733
0.6579632854
0.8245722319
0.9402619411
0.8696182102
0.9041290259
0.6137439924
0.5805677350
0.4206220709
0.5200991884
0.9605582739
0.9513137900
0.6853420933
0.9618879266
0.5799334557
0.4766579037
0.4258706315
0.8932394851
0.4107596239
0.8084797148
0.6673252527
0.5934767700
0.3139602815
0.4855662917
0.8994502932
0.3969676042
0.8863809316
0.4149693874
0.5431414955
0.6628418879
0.9777055355
0.3708150932
0.5620894411
0.4504545286
0.4389281422
0.4804507670
0.4539868029
0.8972796534
0.9822452086
0.9765216248
0.8953433758
0.4295574382
0.7308561257
0.4307927493
0.6455980883
0.5687636383
0.9877809219
0.5410211066
0.4379073648
0.4079731111
0.4060203072
0.9904063659
0.8624582825
0.4301583339
0.9035703334
0.9652190641
0.3895178495
0.4158527862
0.3420836294
0.4006527281
0.6206420722
0.5807359402
0.5265133390
0.6648420150
0.4295572191
0.4411463770
0.7874023237
0.3969679728
0.5808860722
0.5620773005
0.8828242478
0.6185571698
0.5418118769
0.3878343863
0.4411515759
0.6500679885
0.6414717469
0.9277740383
0.4152075200
0.9532582150
0.4151437166
0.6927737866
0.4361412844
0.4259958376
0.9230948082
0.4258684749
0.7722271144
0.4671951193
0.4855513263
0.2957347779
0.5410051674
0.4060205902
0.5807260076
0.4361416389
0.4804574569
0.3196464578
0.4156834928
0.5617458114
0.3692137119
0.3971174895
0.4210796286
0.4149726742
0.3444665347
0.4342865982
0.9601572443
0.3933847121
0.4394549471
0.2822790981
0.5199118710
0.4563002990
0.4685047527
0.4423949916
0.9471152855
0.9527714867
0.4017039159
0.4300347360
0.9513204444
0.4539786994
0.2739003683
0.8990138878
0.4006538816
0.6673261798
0.6990051597
0.9041986370
0.3891392388
0.6624324463
0.9479645649
0.6966144597
0.6016648840
0.5003865253
0.5580988950
0.6273456531
0.7874044881
0.3862911445
0.3897065613
0.8246685288
0.9035701633
0.3910665127
0.6472571906
0.4369813939
0.9111752796
0.8777041992
0.6258957151
0.4482167668
0.9089584976
0.2978591361
0.4016082369
0.2655290522
0.4444483267
0.5805487118
0.4016906470
0.5199574752
0.9863770167
0.3520564382
0.3219393180
0.3838369057
0.9788909967
0.4012763411
0.7422019655
0.4039011191
0.3280828006
0.9804728145
0.9069547133
0.3953170960
0.3553902063
0.4581033356
0.9741543528
0.4330920762
0.6273464561
0.4177283188
0.7001472010
0.4671885378
0.3891398250
0.4259955592
0.4152059565
0.9563747283
0.5991501241
0.4796969615
0.5418016279
0.3839632431
0.5672424587
0.9968837704
0.5199014541
0.4801134318
0.3280846078
0.5457263364
0.4378088775
0.4684919557
0.3878341540
0.4017047551
0.4394515933
0.9756715582
1.0027567918
0.9091101803
0.6655786132
0.5617368362
0.3566544106
0.3028500932
0.3779768280
0.9837484486
0.9610667189
0.2822794970
0.3814611428
0.9848271575
0.7115423349
0.3962291770
0.4807844540
0.4254658303
0.7934591807
0.3812704269
0.3911009834
0.3971164953
0.9339919392
0.4024739252
0.4984041844
0.4425076599
0.7934023415
0.9893701829
1.0064172452
0.8295544342
0.5902691368
0.3889950136
0.4615493005
0.4115408595
1.0007207706
1.0067341571
0.2957363539
0.3948004328
0.3083914737
0.5167591384
0.9787599687
0.5725390851
0.5257549798
1.0222411191
1.0152774218
0.3594678327
0.3720692901
0.9928472070
0.3929293736
0.4196046470
0.6531564717
1.0043802523
1.0177692878
1.0122327987
0.4094284117
0.4176743077
0.6591614972
0.5361449578
0.5195225621
1.0020898076
1.0119205689
0.9676018795
0.9900254729
0.7696544962
1.0197963016
1.0258964067
0.5435592841
1.0027519873
0.9917929346
0.3953312005
1.0292241494
0.3933941366
1.0133572538
0.4275815441
0.4223157035
1.0285885192
0.4331089133
1.0223342236
1.0152499318
0.4300417381
1.0075990892
0.4128429876
0.3658698792
1.0004294111
0.9996653726
0.4298021610
0.7130477045
0.7194930332
0.7194360933
0.7129659350
0.7254298098
0.7305716485
0.7155972845
0.7135187217
0.7278732693
0.7311254525
0.7327136294
0.7278297881
0.7200697798
0.7036188783
0.7250780851
0.7021451167
0.7134952019
0.7254205098
0.6951338273
0.6908974108
0.7207066443
0.7345965365
0.6980317840
0.7049902360
0.6771615902
0.7324243076
0.7071122618
0.6616800886
0.7217485873
0.6953567702
0.6837570605
0.6908381395
0.7402203665
0.6609655866
0.6953937062
0.7021319463
0.7113523660
0.6950991302
0.7380855500
0.6673962966
0.7123898390
0.6595603153
0.7445785925
0.6801076568
0.7267390868
0.6669770583
0.6803252351
0.6981003195
0.7324327211
0.6771467235
0.7281564089
0.7101233546
0.7158062307
0.7402253671
0.7038366559
0.7676735780
0.6783952785
0.7511079658
0.6837041332
0.7436269838
0.6952891255
0.6858822280
0.7249653003
0.7683898803
0.6609410345
0.7424824804
0.7495374055
0.7006968217
0.7133223807
0.7405665582
0.7211803369
0.7289799505
0.6782391123
0.6666432900
0.7567018675
0.6830693625
0.6801073339
0.7467064355
0.7669355702
0.6595201833
0.7202392279
0.7676779592
0.8044925029
0.7935851059
0.6857761257
0.7511155500
0.7522565126
0.7248953402
0.7371374370
0.7057015012
0.6890264715
0.7607827723
0.7627966487
0.8085367986
0.7815745053
0.7372820465
0.7554574819
0.7374479084
0.7466629881
0.7723925955
0.7739232619
0.7104629792
0.7692839686
0.7628806113
0.7531597375
0.6629930746
0.7834416030
0.6514861045
0.6911661444
0.7567045996
0.7948248732
0.7669558065
0.7380772169
0.7783970247
0.7814977015
0.7767144698
0.7751448298
0.6782147134
0.6811816304
0.7881959489
0.7608228041
0.6830580913
0.7864191161
0.7522449249
0.7607680945
0.6991914665
0.7372090944
0.7712299598
0.7624583713
0.7612255858
0.8204129365
0.7295962733
0.7935967847
0.7162160507
0.7294643744
0.7535701734
0.7463674594
0.8045528975
0.7815892045
0.7927992371
0.7903676444
0.6810799105
0.7954111830
0.7767039277
0.7780719386
0.7678270889
0.7628365705
0.6028634102
0.6460624822
0.7723980150
0.7608434020
0.7547085214
0.7462474243
0.7861894001
0.7834527063
0.7948341146
0.6556500563
0.7451629806
0.7801740115
0.6515644023
0.7633261306
0.7739214379
0.7697274775
0.6425837517
0.7787629284
0.6910640679
0.7936318339
0.7711804112
0.7772247118
0.6874641173
0.7463136977
0.6269120189
0.7624316298
0.8017302986
0.7254779322
0.7960297642
0.7447651611
0.7189145057
0.9006695834
0.7460777912
0.7720243965
0.6581517190
0.7979504551
0.6806800199
0.7565394653
0.7612820501
0.8018334010
0.7097138617
0.6992164333
0.9270228896
0.7450715634
0.7859886824
0.8598327623
0.7954176566
0.7801816431
0.7977942089
0.7546701828
0.6106975242
0.7882310883
0.7678052338
0.7894605683
0.6460878032
0.8043525519
0.6030319918
0.8103330423
0.7164956755
0.7861998486
0.7960375511
0.9269125201
0.7526205500
0.7979561890
0.6518218742
0.7083360118
0.7821924495
0.7720430504
0.6789097367
0.7564953906
0.7447106939
0.6317112768
0.6646020968
0.8016674314
0.9179598390
0.7998609033
0.7473973231
0.7746701218
0.7255900425
0.6873203190
0.7166150364
0.6270411993
0.8043536367
0.6676500209
0.7608190864
0.6698233515
0.8611023841
0.7925905492
0.8086677683
0.7875752742
0.6911005527
0.8429375512
0.8680887899
0.8882035744
0.8028514414
0.8376802296
0.7817741660
0.7962218319
0.7679799778
0.7885074577
0.8728410278
0.7268193001
0.8984915050
0.7359848689
0.7525299184
0.6789109822
0.7821940347
0.8158879991
0.6961289667
0.8217281957
0.7834076242
0.6826347567
0.6774196750
0.6271554763
0.7176946311
0.6946034593
0.7902634261
0.6698281371
0.8681356774
0.8053372441
0.8496505951
0.6631983978
0.7817903359
0.8086944377
0.7537360513
0.6898102662
0.7609765730
0.8309299201
0.6893418986
0.8524989179
0.7926064451
0.8108174946
0.8377526109
0.6367323239
0.6932834672
0.5858432010
0.6943432414
0.8679689058
0.8985195940
0.8159597163
0.6612781477
0.8361999080
0.8907111173
0.8063222540
0.7743374378
0.7362892369
0.8489550537
0.6926105235
0.8096871561
0.8404863833
0.7005890126
0.6536761705
0.8753153166
0.8043595207
0.6632006130
0.6893386950
0.6435623279
0.6834610272
0.7902722218
0.9483647829
0.6932824333
0.6860261466
0.9625340919
0.6871448419
0.7178932201
0.6916982258
0.8238956377
0.6385149057
0.6868473072
0.5961378307
0.8197609485
0.7020372865
0.6464651358
0.8157851621
0.9457717504
0.6882029685
0.9719674554
0.8063160257
0.6549064309
0.8315000969
0.9038170398
0.6622716900
0.8907091527
0.8663358979
0.8554493202
0.9676293610
0.7059829247
0.6686650413
0.8077520633
0.7005868453
0.6946045866
0.6612830275
0.8678995264
0.5859749768
0.8096775951
0.9159080158
0.8147493390
0.8361660386
0.8965920390
0.6751046990
0.9718899392
0.6808362135
0.6565948579
0.6868492544
0.6860249243
0.9237010435
0.9308179447
0.9838749914
0.6440336289
0.9489021831
0.6503637578
0.6779252729
0.9624709828
0.7020347513
0.6873400667
0.6769990843
0.6836247545
0.9094156636
0.8157691021
0.6294899457
0.8099728449
0.6484337061
0.9482600404
0.6838498530
0.6862937818
0.8999937793
0.9247953559
0.6686675203
0.6282296960
0.9037362035
0.6978623581
0.7059864498
0.6624455992
0.6855336855
0.8663074411
0.9957915725
0.6791113518
0.8147338737
0.6175983759
0.6187036821
1.0422434827
0.6348382072
0.6838478418
0.9236473742
0.9409003881
0.6769962044
0.9837533911
0.8099642156
0.9449563563
0.6849016472
0.9307100966
0.6567453316
0.6850337400
1.0262653768
0.8229507325
0.6805175032
0.9247121552
0.5930401445
0.9485031547
0.6829647771
0.5927970398
1.0365001544
0.6863142680
0.6863259269
0.6132007697
1.0056293224
0.6283697793
0.6869097636
0.6881696505
0.6978609651
0.5687471758
1.0135757708
1.0361849347
0.6738345359
0.6848997536
0.6850318485
0.6852571970
0.9484821499
0.9448903376
0.6728557756
0.9328960455
0.5887897148
0.8229270701
1.0510195895
0.6188284635
0.6861807576
0.6863322603
0.9383870445
0.6671711384
0.5559030553
0.5624410914
0.9620120878
1.0364230294
0.6886470908
1.0134870285
0.9818996382
0.9877768068
0.5812084571
0.6847674137
1.0131552518
0.5565110845
0.6618028280
0.6179781681
0.6605923846
0.6357469470
0.5452581813
0.6863323180
0.5194352405
0.6811175076
0.5802333909
0.6529845669
0.6738337868
0.5048368252
0.6833266546
0.6825781516
0.9327761290
0.6673323292
0.6753205206
0.6275468137
0.6443643092
0.5048822231
0.6032777450
0.6530870777
0.5219450849
0.6861810582
0.6806010298
0.6728542036
0.9430828623
0.5197547561
0.5429818536
0.9818149777
0.8343150076
0.5504067282
0.9876989958
0.7183888858
0.5699293306
0.9097954050
0.8986548776
0.9169275139
0.6330613991
0.5365424367
0.8758340029
0.9592405199
0.7772493135
0.6015281039
0.9151002221
0.9079342849
0.9099202033
0.6700532705
0.5275868880
0.5784002079
0.6346651850
0.6776172641
0.5157042926
0.4682631110
0.6529788453
0.5194661316
0.6605905889
0.6734515423
0.5012414830
0.6124282269
0.6457801212
0.6811152182
0.6062242539
0.6450975780
0.6304869295
0.6681461012
0.5533000693
0.5984619446
0.6346730665
0.6825788980
0.5496802578
0.4682384047
0.6608888413
0.5144910334
0.4834807740
0.6237794288
0.6640505760
0.6214272551
0.6443545891
0.6376848164
0.6753217280
0.7987032677
0.4855610710
0.5111310666
0.5612850880
0.6213468641
0.7146885246
0.6209203015
0.9078495657
0.9189352307
0.8922670136
0.5552958387
0.9369591959
0.8969995251
0.8364873117
0.8865249169
0.5823457654
0.9430559191
0.8884311057
0.6927739022
0.7419560454
0.5297836533
0.5909182475
0.6599364624
0.7802659510
0.5886135585
0.9086608277
0.9168464604
0.8926873035
0.5197932962
0.9221259002
0.8934289309
0.8706304539
0.8924379270
0.8511291617
0.6538368508
0.5235866720
0.6111293648
0.6544989607
0.6734489892
0.6240410290
0.5997011472
0.4764352360
0.4967766487
0.5794174856
0.5012648951
0.6246561593
0.4564883532
0.4487793742
0.5487400325
0.6346494217
0.5555171470
0.6107876376
0.6640512755
0.6481823048
0.6138156262
0.4890232996
0.4761540494
0.5965141970
0.4822059718
0.6237551346
0.4875944328
0.4353277264
0.5785734381
0.6446975068
0.5619282340
0.6808011625
0.6185837349
0.9034727730
0.5451576668
0.8870311214
0.7985751810
0.4378537374
0.8779985154
0.8924409786
0.8914313321
0.8900718853
0.5100877841
0.5157658275
0.7206839100
0.6068512733
0.8475910482
0.8977256536
0.5895063063
0.6389758162
0.6593407421
0.8982865208
0.5111706149
0.8912095550
0.7368624975
0.8482010795
0.8919862910
0.8918684502
0.8873127431
0.5327901922
0.7925376323
0.5770427021
0.8757033206
0.8969821917
0.9245965101
0.6333841589
0.5023174561
0.8930876244
0.5532934559
0.6111037290
0.9223465900
0.9340802594
0.4167763361
0.6207472565
0.4431680984
0.4843137630
0.8718013241
0.9199724739
0.9318806109
0.6361194079
0.4458304744
0.4968126849
0.5345749050
0.4673257577
0.5969833475
0.5944502843
0.5812013352
0.7539592786
0.5969742585
0.6997935726
0.9248547584
0.5800993776
0.9202927376
0.6124880556
0.4766400346
0.8562856662
0.5788920896
0.6237098871
0.9173286273
0.9388172498
0.4365916705
0.6455592221
0.4206112190
0.5197431119
0.9084359091
0.9112646907
0.9277438916
0.6481808465
0.4426154107
0.4658084087
0.5603339764
0.5023165499
0.5964795330
0.5686900231
0.6085366217
0.6952331338
0.6267474964
0.7922167226
0.9310160742
0.5799546212
0.3814140894
0.8972568098
0.5163255814
0.8090334057
0.2957270171
0.8967472183
0.7307727487
0.8920953089
0.4504558299
0.4408225720
0.4108820112
0.8952718454
0.4307865796
0.3365657287
0.5687367375
0.8912623000
0.5426751534
0.3577493072
0.8784352797
0.3840037191
0.8908907979
0.4107513731
0.8621998976
0.4565798343
0.6020240332
0.6798338041
0.3835395635
0.6206476560
0.3895117796
0.8931845214
0.5431039806
0.7432316416
0.3219381405
0.8994062658
0.8082234745
0.8914714957
0.4628197673
0.4500916049
0.4214058470
0.8988793938
0.4120311833
0.3313956130
0.5934682621
0.8880790218
0.5101270870
0.3520522095
0.8551813204
0.3139583945
0.8913389136
0.8862457080
0.5729905650
0.6340467075
0.3708096782
0.6628365478
0.5909084686
0.9514749213
0.8814926079
0.9074239229
0.6185336106
0.6207782175
0.6500583819
0.7083850550
0.4966060094
0.9203131435
0.8995070412
0.9048119856
0.9202812119
0.5986074759
0.4330569060
0.8962365731
0.6058009188
0.5811641048
0.6402259860
0.5352031826
0.6376022935
0.5588363566
0.9175613178
0.9319009919
0.7676920135
0.9471045966
0.8961824051
0.9230884211
0.9055409924
0.6123704117
0.5560241591
0.9248738500
0.4331715806
0.5738825508
0.5834683356
0.9601539262
0.9527658509
0.6402278818
0.7722246209
0.9504168640
0.8718240208
0.9340940625
0.9610716525
0.5800696667
0.5023554915
0.6997994747
0.7808667478
0.9365514248
0.6124500678
0.9576175546
0.8981951920
0.9265285930
0.9073761180
0.5923140899
0.6024083145
0.6296511810
0.8133219413
0.5310217066
0.9223761659
0.9363847967
0.9105300838
0.6247614213
0.4613734418
0.9125776380
0.6361725200
0.5339364599
0.5339271729
0.6579379956
0.5603013904
0.9238131585
0.9342358572
0.8402616089
0.9384131898
0.8861776233
0.9016304819
0.6267425300
0.5812411121
0.6793685141
0.9109318856
0.4165696846
0.5351543807
0.9563681732
0.9478281022
0.6731686597
0.7041609690
0.9460131628
0.7922335907
0.9310359879
0.9661875799
0.5965604342
0.4634842538
0.6455675967
0.8405335321
0.4468711788
0.8926855794
0.9741492997
0.9788918659
0.8989349896
0.4169555296
0.4389275885
0.8242197669
0.4120360101
0.6624278294
0.6891694021
0.6019915371
0.3371136717
0.9863826526
0.5392758986
0.4408219463
0.5117849824
0.8970002767
0.4051739515
0.4017437524
0.9848242520
0.8866245261
0.4293155662
0.8248687141
0.9719167277
0.3814167180
0.4215877130
0.3532384457
0.3532403681
0.4064169320
0.5465939100
0.6838561270
0.9737218256
0.3770942954
0.3136726358
0.5813540625
0.4649112160
0.5580987777
0.6479251109
0.4342031319
0.4300292195
0.4686524981
0.4320952434
0.8929698586
0.4794719187
0.8954716360
0.9804668169
0.9735246143
0.8940986041
0.4364893436
0.7548048213
0.4214091971
0.6439609279
0.5748152892
0.3136750493
0.9837541233
0.5620237833
0.4500903935
0.5155556809
0.8968043998
0.4016025367
0.4196239198
0.9868990029
0.8675303765
0.4342035104
0.9223425823
0.9634877802
0.3943086647
0.4108824538
0.3313985670
0.3896092481
0.3965491959
0.5163653121
0.6339199252
0.9746059176
0.3835462932
0.5982585539
0.4628178440
0.4239206242
0.5138566871
0.6667018872
0.4500320505
0.4293139677
0.4310646335
0.8197872769
0.2920287898
0.5392536354
0.4017459913
0.5986084298
0.5813412046
0.8995064715
0.5857587260
0.5139068033
0.3335113178
0.6132205930
0.4224949630
0.5207671343
0.3821853433
0.9483050108
0.3926013687
0.6514921976
0.4266538742
0.4310731775
0.3367362551
0.6515025878
0.6952427213
0.6376174814
0.4145210782
0.9175336199
0.9173822336
0.5808861358
0.5685808742
0.9483140581
0.3799678673
0.4050776885
0.9514830946
0.9113017600
0.3911771351
0.4217345910
0.5908836819
0.4949721775
0.7083909466
0.7634059887
0.5143552509
0.2712962395
0.9376383279
0.5259342512
0.4443564326
0.9180697593
0.9644047816
0.6085537932
0.9252643741
0.9643971703
0.4296184923
0.4271962902
0.9252730426
0.9445733289
0.4468627952
0.2855782991
0.8047669245
0.4464677747
0.5117615871
0.9335773453
0.3029977626
0.5620067579
0.4196223715
0.4809935932
0.5982503064
0.8133227226
0.5143587078
0.6927671243
0.4686619409
0.3264917902
0.6345069558
0.4076133285
0.5405376096
0.3720618668
0.3945947206
0.4134843986
0.4064235184
0.3500606755
0.6236818494
0.6853497838
0.6226453618
0.4223018976
0.9314756525
0.9532518075
0.9504245960
0.3921923692
0.4229893912
0.9384593722
0.2696682302
0.4027899907
0.4980066296
0.6579465868
0.9643966112
0.4809939897
0.3744718079
0.4772765520
0.4275682289
0.9576261407
0.9618903681
0.4047791963
0.4207936429
0.9402709374
0.9610753653
0.4794544555
0.2816598628
0.8696188386
0.4725253785
0.5155376161
0.8982719525
0.3965538156