<VTKFile type="UnstructuredGrid" version="0.1">
	<UnstructuredGrid>
		<Piece NumberOfPoints="1862" NumberOfCells="3498">
			<CellData>
				<DataArray type="Int32" Name="type" NumberOfComponents="1" Format="ascii">
0
0
0
0
0
0
0
0
0
0
0
0
0
0
0
0
1
0
0
1
0
0
0
0
0
0
0
0
0
0
0
0
0
1
0
0
0
0
0
0
0
0
0
0
0
0
0
0
0
0
1
0
0
0
0
0
0
0
0
0
0
1
0
0
0
0
0
0
0
0
0
0
0
0
0
0
0
0
0
0
0
0
0
0
0
0
0
0
0
0
0
0
0
0
0
0
0
0
0
0
0
0
0
0
0
0
0
0
0
0
0
0
0
0
0
0
0
0
0
0
0
0
0
1
0
0
0
0
0
0
0
0
0
0
0
0
0
0
0
0
0
0
0
0
0
0
0
0
0
0
0
1
0
1
1
0
0
0
0
0
0
0
0
0
0
0
0
0
1
0
1
0
0
0
0
1
0
0
0
0
0
0
0
0
1
1
0
0
0
0
0
1
0
0
0
0
0
0
0
0
1
0
0
0
0
0
0
0
0
0
0
0
0
0
0
0
0
0
0
0
0
0
0
0
0
0
0
0
0
0
0
0
0
1
0
0
0
0
0
0
0
0
0
0
0
0
0
0
0
0
0
0
0
0
0
0
0
0
0
0
0
0
0
0
0
0
0
0
0
0
0
0
0
0
0
0
0
0
0
0
0
1
0
0
0
0
0
0
0
0
0
0
0
0
0
0
0
0
0
0
0
0
0
0
0
0
0
0
0
0
0
0
0
0
0
0
0
0
0
0
0
0
0
0
0
0
0
0
0
0
0
0
1
0
0
0
0
0
0
0
0
0
0
0
0
0
0
0
0
0
0
0
0
0
0
0
0
0
0
0
0
0
0
0
0
0
0
0
0
0
0
0
0
0
0
0
0
0
0
0
0
0
0
0
0
0
0
0
0
0
1
0
0
0
0
0
0
0
0
0
0
0
0
0
0
0
0
0
0
0
0
0
0
0
0
0
0
0
0
0
0
0
0
0
0
0
0
0
0
0
0
0
0
0
0
0
0
0
0
0
0
0
0
0
0
0
0
0
0
0
0
0
0
0
0
0
0
0
0
0
0
0
0
0
0
0
0
0
0
0
0
0
0
0
0
0
0
0
0
0
0
0
0
0
0
0
0
0
0
0
0
0
0
0
0
0
0
0
0
0
0
0
0
0
0
0
0
0
0
0
0
0
0
0
0
0
0
0
0
0
0
0
0
1
0
0
0
0
0
0
0
0
0
0
0
0
0
0
0
0
0
0
0
1
0
0
0
0
0
0
0
0
0
0
0
0
0
0
0
0
0
0
0
0
0
0
0
0
0
0
0
0
0
0
0
0
0
0
0
0
0
0
0
0
0
0
0
0
0
0
0
0
0
0
0
0
0
1
0
0
0
0
0
0
0
0
0
0
0
0
0
0
0
0
0
0
0
0
0
0
0
1
0
0
0
0
0
0
0
0
0
0
0
0
0
0
0
0
0
0
0
1
0
0
0
1
0
0
0
0
0
0
0
0
0
0
0
0
0
0
0
0
0
0
0
0
0
0
0
0
0
1
0
0
0
0
0
0
0
1
0
0
0
0
0
0
0
0
0
0
0
0
0
0
0
0
0
0
0
0
0
0
0
0
0
0
1
0
0
0
0
0
0
0
1
0
0
0
0
0
0
1
0
0
0
0
0
0
0
0
0
0
0
0
0
0
0
0
0
0
0
0
0
0
0
0
0
0
0
0
0
0
0
0
0
0
0
0
0
0
1
0
0
0
0
0
1
0
0
0
0
0
0
0
1
0
0
0
0
0
0
0
0
0
0
0
0
0
1
0
0
0
0
0
0
0
0
0
0
0
0
0
0
0
0
0
0
0
0
0
0
0
0
0
0
0
0
0
0
0
0
0
0
0
0
0
0
0
0
0
0
0
0
0
0
0
0
0
0
0
0
0
1
0
0
0
0
0
0
0
0
0
0
0
0
0
0
0
0
0
0
0
1
0
0
0
0
0
0
0
0
0
1
0
0
0
0
0
0
0
0
0
0
0
0
0
0
0
0
0
0
0
0
0
0
0
0
0
0
0
0
0
1
0
1
0
0
0
0
0
0
0
0
0
0
0
0
0
0
0
0
0
0
0
0
0
0
0
0
0
0
0
1
0
0
0
1
0
0
0
0
0
0
0
0
0
0
0
0
0
0
0
0
0
0
0
0
0
0
0
0
0
0
0
0
1
0
0
0
0
0
0
0
0
0
0
0
0
0
0
0
0
0
0
0
0
0
0
0
0
0
1
0
0
0
0
0
0
0
0
0
0
0
0
0
0
0
0
0
0
0
0
0
0
0
1
0
0
0
0
0
0
1
0
0
0
0
0
0
0
0
0
0
0
1
0
0
0
0
0
0
0
0
0
0
0
0
0
0
0
0
0
0
0
0
1
0
0
0
0
0
0
0
0
0
0
0
1
0
0
0
0
0
0
0
0
0
0
0
0
0
0
0
0
0
0
0
0
0
1
0
0
0
0
0
0
0
0
0
1
1
0
1
0
1
0
0
0
0
0
0
0
0
0
0
0
1
0
0
0
0
0
1
1
0
0
0
0
0
0
1
0
0
0
0
0
1
1
1
0
0
0
0
0
0
0
0
0
0
0
0
1
1
0
0
1
0
0
0
0
0
1
0
0
0
1
0
1
0
0
0
0
0
0
0
1
0
0
0
0
0
0
0
1
0
0
1
0
0
0
0
0
0
0
0
0
0
0
0
0
0
0
1
0
0
0
0
0
0
0
0
0
0
0
0
0
0
0
0
0
0
0
0
0
0
0
0
0
0
0
0
0
0
0
0
0
0
0
0
1
0
0
0
0
0
0
1
0
0
0
1
0
0
0
0
0
0
0
0
0
0
0
1
0
0
0
0
0
0
0
0
0
0
0
0
0
0
0
0
0
0
0
0
0
0
0
0
0
0
0
0
0
0
0
0
0
0
0
0
0
0
0
0
1
1
0
0
0
0
0
0
0
0
0
0
0
0
0
1
0
0
0
0
0
0
0
0
0
0
0
0
0
0
0
0
0
0
0
0
0
0
0
0
0
0
0
0
0
0
0
0
0
0
0
0
0
0
0
0
0
0
0
0
0
0
0
0
0
0
0
0
0
0
0
0
0
0
0
0
0
0
0
0
0
0
0
0
0
0
0
0
1
1
0
0
0
0
0
0
0
0
1
0
0
0
0
0
0
0
0
0
0
0
0
0
0
0
0
0
0
0
0
0
0
0
1
0
0
0
0
0
0
0
0
0
0
0
0
0
0
0
0
1
0
0
0
0
0
0
0
0
0
0
0
0
0
0
0
0
0
0
0
0
0
0
0
0
0
0
0
0
0
0
0
0
0
0
0
0
0
0
0
0
0
0
0
0
0
0
0
0
0
0
0
0
0
0
0
0
0
0
0
0
0
0
0
0
0
0
0
0
0
0
0
0
0
0
0
0
0
0
0
0
0
0
0
0
0
0
0
0
0
0
1
1
0
0
0
0
0
1
0
0
0
0
0
0
0
0
0
0
0
0
1
0
0
0
0
0
0
0
0
0
0
0
0
0
0
0
0
0
0
0
0
0
0
0
0
0
0
0
0
0
0
0
0
0
0
0
0
0
0
0
0
0
0
0
0
0
0
0
0
0
0
0
0
0
1
0
1
0
0
0
0
0
0
0
0
0
0
0
0
0
0
0
0
0
0
1
0
0
0
0
0
0
0
0
0
0
0
0
0
0
0
0
0
0
0
0
0
0
0
0
0
0
0
0
0
0
0
0
0
0
0
0
0
0
0
0
0
0
0
0
0
0
0
0
0
0
0
0
0
0
0
0
0
0
0
0
0
0
0
0
0
0
0
0
0
0
1
0
0
0
0
0
0
0
0
0
0
1
0
0
0
0
0
0
0
0
0
0
0
0
0
0
0
0
0
0
0
0
0
0
0
0
0
0
0
0
0
0
0
0
0
0
0
0
0
1
0
0
0
0
0
0
0
0
0
0
0
0
0
0
0
0
0
0
0
0
0
0
0
0
0
0
0
0
0
0
0
0
0
0
0
0
0
0
0
0
0
0
0
0
0
0
0
0
0
0
0
0
0
0
0
0
0
0
0
0
0
0
0
0
0
0
0
0
0
0
0
0
0
0
0
0
0
0
0
0
0
1
0
0
0
0
0
0
0
0
0
0
0
0
0
0
0
0
0
0
0
0
0
0
0
0
0
0
0
0
0
0
0
0
0
0
0
0
0
0
0
0
0
0
0
0
0
0
0
0
0
0
0
0
0
0
0
0
0
0
0
0
0
0
0
0
0
0
0
0
0
0
0
0
0
0
0
0
0
0
0
0
0
0
0
0
0
0
0
0
0
0
0
0
0
0
0
0
0
0
0
0
0
0
0
0
0
0
0
0
0
0
0
0
0
0
0
0
0
0
0
0
0
0
0
1
0
0
0
0
0
0
0
0
0
0
0
0
0
0
0
0
0
0
0
0
0
0
0
0
0
0
0
0
0
0
0
0
0
0
0
0
0
0
0
0
0
0
0
0
0
0
0
0
0
0
0
0
0
0
0
0
0
0
0
0
0
0
0
0
0
0
0
0
0
0
0
0
0
0
0
0
0
0
0
0
0
1
0
0
0
0
0
0
0
1
0
0
0
0
0
0
0
0
0
0
0
0
0
0
0
0
0
0
0
0
0
0
0
0
0
0
0
0
0
0
0
0
0
0
0
0
0
1
0
0
0
0
0
0
0
0
0
0
0
0
0
0
0
0
0
0
0
0
0
1
0
0
0
0
0
0
0
0
0
0
0
0
1
1
0
0
0
0
0
0
0
0
0
0
0
0
0
0
0
1
1
0
1
0
0
0
0
0
0
0
0
0
1
0
0
0
0
0
0
1
0
0
0
0
0
0
0
0
0
0
1
0
0
0
0
1
0
1
0
0
0
0
0
0
0
1
0
0
0
1
0
0
0
1
0
1
1
0
0
1
1
0
0
0
1
0
0
0
1
0
0
0
0
0
0
0
0
0
1
0
0
0
0
0
0
1
0
0
0
0
0
0
0
0
0
0
0
0
0
0
0
0
0
0
0
0
0
0
0
0
0
0
0
1
0
0
1
0
0
0
0
0
0
0
0
0
0
0
0
0
0
0
0
0
0
1
0
0
1
0
0
0
0
0
0
0
0
0
0
0
1
0
0
1
0
0
0
0
0
0
0
0
0
0
0
1
1
0
0
0
0
0
0
0
0
0
0
0
0
1
0
0
0
0
0
0
0
0
0
0
0
0
0
0
0
0
0
1
0
0
0
0
0
0
0
0
0
0
0
0
0
0
0
0
0
1
0
0
0
0
0
0
0
0
0
0
0
0
0
0
0
0
0
0
0
0
0
0
0
0
0
0
0
0
0
0
0
0
0
0
0
0
0
0
0
0
1
0
0
0
0
0
0
0
0
0
0
0
0
0
0
0
0
0
0
0
0
0
0
0
0
0
0
0
0
0
0
0
0
0
0
0
0
0
0
0
0
0
0
0
0
0
1
0
0
0
0
0
0
0
0
0
0
0
0
0
0
0
0
0
0
0
0
0
0
0
0
0
0
0
0
0
0
0
0
0
0
0
0
0
0
0
0
0
0
0
0
0
0
0
1
0
0
0
0
0
0
0
0
0
0
1
0
0
0
0
0
0
0
0
0
0
0
0
0
0
0
1
0
0
1
0
0
0
0
0
0
0
0
0
0
0
0
0
0
0
0
0
0
0
0
0
0
0
1
0
0
0
0
0
0
0
0
0
0
0
0
0
0
0
0
0
0
0
0
0
0
0
0
0
0
0
0
0
0
0
0
0
0
0
1
0
0
0
0
0
0
0
0
0
0
0
0
0
0
0
0
0
0
0
0
0
0
0
0
0
0
0
0
0
0
0
0
0
0
0
0
0
0
0
0
0
0
0
0
0
0
0
0
0
0
0
0
0
0
0
0
0
0
0
0
0
0
0
0
0
0
0
0
0
0
0
0
0
0
0
0
1
0
0
0
0
0
0
0
0
0
0
0
0
0
0
0
0
0
0
0
0
0
0
0
0
0
0
0
0
0
0
0
0
0
0
0
0
0
0
0
1
0
0
0
0
0
0
0
0
0
0
0
0
1
1
0
0
0
0
0
0
0
0
0
0
0
0
0
0
0
0
0
0
0
0
0
0
0
0
0
0
0
0
0
0
0
0
0
0
0
0
0
0
0
0
0
0
0
0
0
0
0
0
0
0
0
0
0
0
0
0
0
0
0
0
0
0
0
0
0
0
0
0
0
0
0
0
0
0
0
0
0
0
0
0
0
0
0
0
0
0
0
0
0
0
0
0
0
0
0
0
0
0
0
0
0
1
0
1
0
0
0
0
0
0
0
1
1
1
1
0
0
0
0
0
0
0
0
0
0
0
0
0
0
0
0
0
0
0
0
0
0
0
0
0
0
0
0
1
1
0
0
0
0
0
0
0
0
0
0
0
0
0
0
0
0
0
0
1
0
0
0
0
0
0
0
1
1
0
1
1
0
0
1
0
0
0
0
0
0
0
1
0
1
0
0
0
0
0
0
0
0
0
0
0
0
0
0
0
0
0
0
0
0
0
0
0
0
0
0
0
1
1
0
0
0
1
1
0
0
0
0
1
0
0
1
0
1
0
0
0
0
0
1
0
0
0
1
0
0
0
0
0
0
0
0
0
0
0
0
0
0
0
0
0
0
0
0
0
0
0
0
0
0
0
1
0
0
0
0
0
0
1
0
0
0
0
0
0
0
0
0
0
0
0
0
0
0
0
0
0
0
0
0
0
0
0
0
0
0
0
0
1
0
1
0
0
0
0
0
0
0
1
0
0
0
0
0
0
0
0
0
0
0
1
0
0
0
0
0
0
0
0
0
1
0
0
0
0
0
0
0
1
0
0
0
0
0
0
0
1
0
0
0
0
0
0
0
0
0
0
0
0
0
0
0
0
0
0
0
1
0
1
0
0
0
0
0
1
0
0
0
0
0
0
0
0
0
0
0
0
0
0
0
0
0
0
0
0
0
0
0
0
0
1
0
1
0
0
0
0
0
0
0
0
0
1
0
0
0
0
0
1
0
0
0
0
0
0
0
0
0
0
0
0
0
0
0
1
0
0
0
0
0
0
0
0
1
0
0
0
0
0
0
0
0
0
0
0
0
0
0
0
0
0
0
0
0
0
0
0
0
0
0
0
0
0
0
1
0
0
0
0
0
0
0
0
0
0
0
0
0
0
0
0
1
0
0
0
0
0
0
0
0
1
0
0
0
0
0
0
0
0
0
1
0
0
0
0
0
1
0
0
0
0
0
0
0
0
0
0
0
0
0
0
0
0
0
0
0
1
0
0
0
0
0
0
1
0
0
0
0
0
0
0
0
1
0
0
0
0
0
0
0
0
0
0
0
0
0
0
1
0
0
1
0
0
0
1
0
0
0
0
0
0
0
0
0
0
0
0
0
0
0
0
1
0
0
0
0
0
0
0
0
0
0
1
0
1
0
0
0
0
0
0
1
0
0
0
0
0
0
0
0
0
0
0
0
0
0
0
0
0
0
0
0
0
0
0
0
0
0
0
1
1
0
0
0
0
0
0
1
0
0
0
0
0
0
0
0
0
0
0
0
0
1
0
0
0
0
0
0
0
1
0
0
0
0
0
0
0
0
0
0
0
0
0
0
0
0
0
0
0
0
0
0
0
0
0
0
0
1
0
0
0
0
0
0
0
0
0
0
1
0
0
1
0
0
0
0
0
0
0
0
0
0
0
0
0
0
0
0
0
0
0
0
0
0
0
0
0
0
0
0
0
1
0
0
0
0
0
0
0
1
0
0
0
0
0
0
0
1
0
0
0
0
1
0
0
0
0
0
0
0
0
0
0
0
1
0
1
0
0
0
1
0
				</DataArray>
				<DataArray type="Float64" Name="h" NumberOfComponents="1" Format="ascii">
1.2168480959
1.2168819719
1.2072043951
1.2138751106
1.2069073982
1.2087456094
1.2109215234
1.2193179076
1.2134537626
1.2266186474
1.2170074368
1.2093303374
1.2214491734
1.2200543659
1.2195820459
1.2287212139
1.2112360104
1.2259044638
1.2184083626
1.2170527866
1.2044010214
1.2212469291
1.2131691343
1.2043404579
1.2141444702
1.2321638547
1.2173078652
1.2052389671
1.2085735174
1.2231109637
1.2200143352
1.2116088694
1.2228691616
1.2066799549
1.1984512231
1.2043909862
1.2008391008
1.2129862332
1.2061722683
1.2034074226
1.2070844228
1.2028955908
1.2158598337
1.2087716741
1.2031287588
1.2054991611
1.2113720467
1.1983028329
1.2067202357
1.2075899943
1.2027529291
1.2050236633
1.2072811750
1.2016381671
1.2018357464
1.2150455355
1.2043690263
1.1968369578
1.1980441579
1.1997256491
1.1962756578
1.1960855158
1.2046418381
1.2036339031
1.2073390688
1.2043555986
1.2083540394
1.2055460673
1.1965973721
1.1964267748
1.1972442571
1.2006666748
1.2126115875
1.2015725116
1.1993824467
1.2070157225
1.1974929781
1.1976377554
1.1968340317
1.2065752895
1.1965089352
1.2040282465
1.2090178324
1.2063912447
1.2075036122
1.2066715548
1.1971764380
1.2072785196
1.1993290167
1.2103759477
1.1991249243
1.2065388830
1.1971435863
1.2114310289
1.2060725901
1.2058953739
1.2083572900
1.2070714876
1.2056317367
1.1977752319
1.2085806599
1.1966620442
1.2052530631
1.1970803716
1.2343128237
1.2092955019
1.2082165422
1.2073718512
1.1984880999
1.2050462500
1.2106537769
1.2097641734
1.1990799673
1.2013700743
1.2042242319
1.2000657052
1.2041234133
1.2300918114
1.2020207482
1.2032516033
1.2327008898
1.2071672571
1.2079763638
1.2350320917
1.2011245922
1.2057225473
1.2030032237
1.2377455483
1.1984994503
1.2016288140
1.1995232393
1.2073863367
1.2019961155
1.1982549238
1.2293699405
1.2006400744
1.2372450676
1.1989807010
1.1971849668
1.2271505616
1.2405122940
1.2319013554
1.1990905184
1.2214448209
1.2075304671
1.1984134834
1.2326726626
1.2020658459
1.2349229637
1.2008615034
1.2391145524
1.1981530795
1.1986452114
1.1981669641
1.1966629567
1.2005407725
1.1988152909
1.2376671738
1.1997292952
1.2442202622
1.2243347425
1.2008400486
1.2349396537
1.2416600488
1.2383098843
1.2031090651
1.2160852699
1.2300701455
1.2391584761
1.1999304571
1.1986465500
1.2425775858
1.1984075111
1.2397281516
1.2136980308
1.1978233984
1.2186830423
1.2056051968
1.1983761763
1.2430187575
1.2017882456
1.2099879990
1.2454297741
1.2092249113
1.2438267052
1.2447758396
1.2117614746
1.1988752166
1.2407168366
1.2455381996
1.2077712005
1.1985350312
1.2464407903
1.2088210846
1.1980056425
1.2055653088
1.2439480263
1.2071511545
1.2073239061
1.2016671784
1.2458282338
1.2102906681
1.2451537715
1.1996931217
1.2082311954
1.2487243902
1.2310826659
1.2407226487
1.2074779029
1.2193391276
1.2074726940
1.2453458831
1.2459933995
1.2501796687
1.2363945689
1.2066828886
1.2252117246
1.2470318011
1.2100156032
1.2477444706
1.2092467469
1.2139954315
1.2140822521
1.2149258386
1.2122905880
1.2057889995
1.2115632354
1.2141373377
1.2108743867
1.2129613263
1.2022142340
1.2146542357
1.2133242092
1.2035735855
1.2078933986
1.2146776255
1.2064581050
1.2285647330
1.2489969506
1.2161330731
1.2053519180
1.2396798408
1.2491312561
1.2162256601
1.2386404710
1.2280000739
1.2486590429
1.2080656867
1.2345491893
1.2469946589
1.2222252962
1.2072128386
1.2462258607
1.2067426749
1.2056004822
1.2507051004
1.2219541933
1.2337181078
1.2501715314
1.2161024471
1.2109447145
1.2147124758
1.2173963808
1.2186689485
1.2137108801
1.2100066598
1.2101921477
1.2104699674
1.2052438560
1.2183542039
1.2162779883
1.2114294481
1.2148365113
1.2154126512
1.2160497949
1.2125219549
1.2162763634
1.2181760345
1.2187389182
1.2123605016
1.2135924668
1.2075869055
1.2077759506
1.2125429927
1.2175344842
1.2156770457
1.2146433574
1.2246926865
1.2486827276
1.2487544037
1.2248657215
1.2045347533
1.2373816281
1.2369822592
1.2114776553
1.2027469905
1.2125636677
1.2314083742
1.2460715566
1.2506972979
1.2504687096
1.2312442462
1.2051739252
1.2041511220
1.2060283953
1.2178066921
1.2032825690
1.2184101435
1.2457461974
1.2172574209
1.2188944418
1.2207944346
1.2096976022
1.2117231841
1.2210909174
1.2200211384
1.2064346795
1.2193491217
1.2151419238
1.2079782684
1.2225278178
1.2164571976
1.2227230307
1.2148590661
1.2193203987
1.2178632479
1.2218368488
1.2124915174
1.2196474795
1.2199223405
1.2183094684
1.2175552175
1.2123331114
1.2143340914
1.2228428144
1.2144916251
1.2221438712
1.2202560741
1.2308138282
1.2051437907
1.1992599325
1.2074349570
1.2478539328
1.2020522102
1.2336091448
1.2191240587
1.2339527048
1.2473922050
1.2358570978
1.2300989196
1.2024580751
1.2359046271
1.2273555395
1.2442813204
1.2373637412
1.2116330630
1.2364085060
1.1983937718
1.2133416465
1.2392144165
1.2366549013
1.2358505582
1.2504611587
1.2013692240
1.2051237549
1.2266873853
1.2230573786
1.2313056983
1.2338504967
1.2492890808
1.2389083481
1.2405032322
1.2440259242
1.2203701130
1.2240020444
1.2264430019
1.2199271205
1.2276547958
1.2258698213
1.2200686962
1.2133004767
1.2238455047
1.2147387564
1.2004809480
1.2270403156
1.2032386048
1.2193631410
1.2224885525
1.2243042611
1.1699631892
1.2175345675
1.2165970908
1.2234306396
1.2168647573
1.2227009616
1.2269426264
1.2212403045
1.1934878538
1.1827807423
1.1905310955
1.2225379798
1.2230462009
1.1785683360
1.2241557382
1.2038765735
1.2175966133
1.2266941442
1.2168469384
1.2211713271
1.1712477169
1.2255708950
1.2271134227
1.2324657257
1.2344987868
1.2138666685
1.2347501910
1.2321914725
1.2007373167
1.2364498396
1.2260887119
1.2281022090
1.2176228325
1.2293387244
1.2364791245
1.2378170161
1.2311606679
1.2280428798
1.2459295724
1.2405533859
1.1994128287
1.2322612975
1.2402996742
1.2397219758
1.2400779008
1.2378315703
1.2350440770
1.2476433776
1.2325458589
1.2299861410
1.2333021159
1.2389646052
1.2461644634
1.2217697418
1.2462701885
1.2399070519
1.2065197635
1.2283181484
1.2444256616
1.2319945162
1.2441943920
1.2433743479
1.2254902862
1.2492818665
1.2230050261
1.1969148094
1.2176243009
1.2448604043
1.2439605578
1.2417546127
1.2455689860
1.2415504554
1.2045902736
1.2055678442
1.2200865829
1.1972998502
1.2280105413
1.2299572094
1.2225383926
1.2036299097
1.2229189793
1.2250216999
1.1926802757
1.2282618023
1.1922540734
1.2156116068
1.2261715302
1.2497192292
1.1674093879
1.2426578349
1.2229984489
1.2145047365
1.2051749261
1.2142700636
1.2228488036
1.2532862363
1.2506382575
1.2277005314
1.2044806360
1.2272799610
1.1829001750
1.2460824730
1.2196298272
1.2521330234
1.2373219686
1.2212361618
1.1742998361
1.1979789534
1.2532251461
1.2283507400
1.2043898411
1.2521811511
1.2505147267
1.1657455473
1.1827785483
1.1905313149
1.1906135668
1.2246377279
1.2469099092
1.2142145066
1.2496072824
1.2044841204
1.1973484769
1.2492032039
1.1926794009
1.2388139457
1.2426503237
1.2467697884
1.2366360883
1.2407473140
1.1879657594
1.1973513362
1.2405778946
1.2430079070
1.2334917670
1.2021474741
1.2475409715
1.1987271817
1.2454136419
1.2299311887
1.1936611682
1.2438946221
1.2055656724
1.2426685621
1.2207466447
1.2229130278
1.2015667456
1.2373138982
1.1979772773
1.2469033245
1.2299322851
1.2051795930
1.1871500305
1.1666003014
1.2448465462
1.1652468446
1.1938155675
1.2109666400
1.1922553124
1.1744178936
1.1746407777
1.2444792875
1.1628662078
1.2115477091
1.2263006079
1.2355627803
1.2349340030
1.2026656125
1.1841071398
1.2442399425
1.2433056401
1.1877142174
1.1936994928
1.2439646359
1.2142661344
1.2151293730
1.2325477297
1.1906137801
1.2299583119
1.2507660302
1.2255046791
1.1857437802
1.2475585519
1.2501959500
1.2485095054
1.2260963147
1.2350415035
1.2187099413
1.2437553686
1.2492054950
1.1843674697
1.1831531258
1.2319908463
1.2521830639
1.1885711864
1.2477418882
1.2115336012
1.2299985740
1.2324636069
1.2283233546
1.1715003324
1.2280577753
1.2069995256
1.1700581926
1.2185785033
1.1662228022
1.2230131572
1.1938682782
1.2401125059
1.2515259559
1.1761237578
1.2178310928
1.1790872967
1.2503424560
1.1911809305
1.2311581157
1.1649349406
1.1852728780
1.2524403149
1.2321974149
1.1736464398
1.1744179607
1.2209300775
1.2522568185
1.1775195251
1.2437560372
1.2011976509
1.2519472807
1.2207420056
1.1857438543
1.1936635332
1.2021449955
1.2428379339
1.2406897828
1.2287960461
1.2407408366
1.1787372617
1.1722142429
1.2565176054
1.2355560758
1.1662575403
1.1852724907
1.1699531750
1.1673156364
1.2026689561
1.1879645718
1.1877154306
1.2115443743
1.2553983704
1.2568176674
1.2538956326
1.2503031342
1.2448408497
1.1778161981
1.1972577720
1.1877086012
1.2504878777
1.2519100477
1.2263011735
1.1672140309
1.2524223973
1.1690236607
1.1782101035
1.2312297334
1.2045607252
1.1668813622
1.1795354800
1.1995693138
1.1938134379
1.2545600357
1.1846227998
1.2375137657
1.2147667767
1.2530663535
1.2560434196
1.2569117529
1.2534809342
1.1695190056
1.1762579657
1.2237099423
1.1939691856
1.2554817623
1.2562737119
1.2015667442
1.1715687754
1.1933911785
1.1679133077
1.2561309631
1.1677633574
1.1654275144
1.2600714144
1.2590052138
1.1688369066
1.1646047538
1.2571291004
1.1635338355
1.1662582682
1.1682490312
1.2583570473
1.2592960788
1.2591193220
1.1629610988
1.1677039625
1.1689128051
1.1734326587
1.1696337170
1.2579363806
1.2591604919
1.2545384234
1.2564213831
1.1666930293
1.2601541718
1.2610665440
1.1747334116
1.2568154523
1.2554049006
1.1736444794
1.2617359168
1.1628645367
1.2585517395
1.1822326450
1.1725709711
1.2616961747
1.1775171320
1.2604121309
1.2584277247
1.1936959530
1.2567339060
1.1927228449
1.1873293030
1.2556532757
1.2550676543
1.2160342607
1.2134340127
1.2118983616
1.2119229029
1.2134679954
1.2120905901
1.2093267787
1.2169959306
1.2164118775
1.2084169089
1.2087332409
1.2069194871
1.2084383278
1.2134714665
1.2195600912
1.2109080826
1.2230724384
1.2164293347
1.2121001938
1.2229760856
1.2258932875
1.2138848363
1.2072108173
1.2183688395
1.2231043614
1.2270536747
1.2088869199
1.2193357216
1.2321648050
1.2141397324
1.2266273697
1.2235199390
1.2214781202
1.2053466031
1.2259969677
1.2162423742
1.2230831485
1.2200117117
1.2229986238
1.2066809464
1.2228394726
1.2115674057
1.2202624539
1.2034033000
1.2067629932
1.2112350826
1.2287338800
1.2158168598
1.2061552032
1.2088876578
1.2270661301
1.2070624765
1.2200618219
1.2170541670
1.2053505202
1.2132171512
1.1986222015
1.2212802729
1.2015110027
1.2235497133
1.2044018141
1.2162888232
1.2180038701
1.2039965226
1.1983022106
1.2260144052
1.2031206171
1.2027521634
1.2113237352
1.2052576566
1.2043487232
1.2086062517
1.2043497042
1.2082301252
1.2173452414
1.1999440767
1.2291279717
1.2067765196
1.2017612824
1.1985152478
1.2202931898
1.2072481945
1.1986237998
1.2082929079
1.2041151632
1.2180487018
1.2015133168
1.2009753676
1.2040118255
1.2044052774
1.2073049319
1.2130309640
1.1989931864
1.1984519061
1.2046247074
1.2055236312
1.2029724167
1.2008397892
1.2036211357
1.2017689651
1.1978500171
1.1985656449
1.2088126120
1.2015591984
1.2006356362
1.2006622026
1.2125806376
1.1963826318
1.2093048370
1.2090074232
1.1999461334
1.1963689945
1.1985158496
1.2029083672
1.1974913984
1.1972417932
1.2004154521
1.1993741563
1.2082529858
1.2112258492
1.1965963149
1.1996064616
1.2291366474
1.1964260607
1.2009805203
1.1989959944
1.2054027654
1.2029844171
1.2050222399
1.1998555246
1.2090467379
1.2067440257
1.2050447587
1.2041348794
1.2055240390
1.2040201081
1.2063714981
1.2021982862
1.2083192951
1.2076161453
1.1962767425
1.1960863576
1.2112632044
1.1968005003
1.2004268549
1.1980483613
1.1989764811
1.2006429178
1.2072178982
1.2109646739
1.1978516756
1.1996072717
1.2006593820
1.2018442744
1.1971408979
1.1963826505
1.1963707228
1.2150781228
1.2029412778
1.1984963351
1.2093223262
1.2016463304
1.1985691079
1.1997315251
1.2065425670
1.1968374811
1.2090371100
1.1971404851
1.2050422884
1.1970796578
1.2056232821
1.2022051224
1.2084674408
1.1998591077
1.1966605086
1.2098005695
1.1979177636
1.2060098400
1.2043672654
1.2085587965
1.2083764442
1.1972135423
1.2070680017
1.1962157978
1.2058931552
1.2011642812
1.2090723081
1.1977734516
1.2092816989
1.2054094222
1.2071207131
1.2029484553
1.1984824303
1.2097327495
1.1968024891
1.1985025935
1.1990726374
1.2006641899
1.2070068491
1.2121635089
1.1989806075
1.1976414122
1.2109872482
1.1982340752
1.2072126502
1.2106204453
1.2050397518
1.1971427584
1.1979209518
1.2071340468
1.2027513655
1.1962169544
1.2066665137
1.2071583349
1.2005488888
1.1972138663
1.2329230191
1.2011699740
1.2060258481
1.2075039293
1.2065747002
1.1971775202
1.2090370431
1.1965099933
1.2041114696
1.1968340031
1.2098208697
1.2327040057
1.2072889828
1.2084744374
1.1982362532
1.2073881485
1.2112324951
1.2352318337
1.2057043490
1.1993712678
1.2002501796
1.1993366312
1.2060730376
1.2114631852
1.2022861475
1.2104048236
1.1991292492
1.2036596069
1.1962968285
1.2011106111
1.2029883946
1.2121930290
1.2016230936
1.2052627940
1.2045499184
1.2125991561
1.2027619684
1.2329210238
1.2005590096
1.2031307652
1.2293714038
1.2006343946
1.2019826877
1.2343087093
1.2083586866
1.2075365361
1.2114697563
1.2319064593
1.2022854140
1.2352259185
1.2022933309
1.2013802160
1.2073946555
1.2346193447
1.1962969997
1.2002578516
1.2042400493
1.2349300248
1.2112608911
1.1990879273
1.2368244766
1.2000666508
1.1993799434
1.1984123776
1.2036720882
1.2082093746
1.2327465003
1.2074478699
1.2125262174
1.1985935058
1.2045611034
1.2031453203
1.2405693717
1.1982230755
1.2061777611
1.1971274483
1.2032680342
1.2126211675
1.1981519026
1.2300914258
1.1978140237
1.2020293378
1.2265829140
1.2391309089
1.1986440534
1.1966621985
1.2346134348
1.2368170943
1.2300692513
1.2383195891
1.2023018492
1.1997050847
1.2327405191
1.2392928412
1.2020944989
1.2112021504
1.2114890039
1.2350254524
1.1985004468
1.2243203009
1.2355306568
1.2079647402
1.1995258698
1.2261046443
1.2349484806
1.1977063849
1.2008377016
1.2377369581
1.1997272122
1.1971276954
1.2372369489
1.1982556959
1.1992523502
1.2112860760
1.2061934194
1.1997833185
1.1989812297
1.1984057987
1.2234273842
1.2387610223
1.1971855958
1.2265830836
1.2125362096
1.2405521865
1.1985947586
1.2074383304
1.1978144498
1.1999276804
1.1977626219
1.1982239633
1.1986448747
1.2397406651
1.2008640715
1.2454398933
1.2102289917
1.2355234234
1.2392829858
1.2048509731
1.1990424515
1.1990480984
1.2214696963
1.2020697936
1.2326709936
1.2430309873
1.2020986769
1.2261029034
1.2112047514
1.2453010282
1.2405015848
1.2017837795
1.1977068800
1.2186615217
1.1972504924
1.2271643254
1.1997065390
1.2428768167
1.2407255521
1.2005423367
1.1988171048
1.2387444227
1.2110273627
1.1992538100
1.2296036033
1.2234251412
1.2112882036
1.2438346067
1.1997840140
1.1981681054
1.2376554116
1.1977632611
1.2117436714
1.2098521714
1.1980024159
1.2161110442
1.2428665167
1.2048607033
1.2055583602
1.2452895904
1.1990501270
1.1972510234
1.2032794217
1.2441359001
1.1990436708
1.2102271335
1.2415684831
1.1985317614
1.1977457603
1.2416478295
1.2031151151
1.2088150243
1.2038978339
1.2442103606
1.2103032717
1.1986910888
1.2425690584
1.2451624473
1.2137169120
1.1996898030
1.2110212859
1.2391507028
1.2458366752
1.2295984530
1.2073273719
1.1992146423
1.1983793835
1.2424847437
1.2441267584
1.2415586555
1.2453548883
1.2039009153
1.2032855915
1.2463917026
1.2073939495
1.2099972320
1.1977465477
1.1978265963
1.2098436335
1.2473295549
1.2468073347
1.2056120514
1.2460061842
1.2074853198
1.2077710984
1.2022114285
1.1986943588
1.2455297389
1.1992180582
1.2007158615
1.2005534998
1.2092143657
1.2447673854
1.1988784544
1.2092558995
1.2486695326
1.2279996181
1.2429600172
1.2386558689
1.2071462627
1.2467988930
1.2077475730
1.2468224601
1.2162129635
1.2442940444
1.2424700584
1.2064593669
1.2464316319
1.2482268204
1.2074068821
1.2439338248
1.2495723932
1.2337269384
1.2428472113
1.2067457986
1.2219447393
1.2462394634
1.2080622342
1.2473210859
1.2490053529
1.2463804936
1.2037511019
1.2088617011
1.2082260201
1.2007199857
1.2156464420
1.2114199956
1.2005567792
1.2160406469
1.2123724720
1.2077699175
1.2135613992
1.2098523890
1.2146523449
1.2104774604
1.2148023287
1.2016705862
1.2160808912
1.2137239544
1.2052412476
1.2119441946
1.2099930613
1.2154145227
1.2074742518
1.2248667169
1.2438241859
1.2477348352
1.2125574301
1.2045354402
1.2442784040
1.2077436251
1.2429440046
1.2479843086
1.2078255484
1.2369964156
1.2486932043
1.2468127541
1.2193552168
1.2407076198
1.2310819367
1.2487143664
1.2100244459
1.2312526772
1.2457597871
1.2482184974
1.2184052698
1.2051726073
1.2470191889
1.2066796898
1.2060285833
1.2418529036
1.2504069723
1.2252218191
1.2428310705
1.2363853447
1.2495642233
1.2146851028
1.2079740316
1.2094235044
1.2144981293
1.2178775672
1.2196507031
1.2133129708
1.2119672463
1.2078986724
1.2124793490
1.2108655384
1.2035771790
1.2145997349
1.2199023078
1.2182775396
1.2140973361
1.2037554263
1.2129957899
1.2146801813
1.2149446684
1.2117229351
1.2164694080
1.2189057407
1.2200128949
1.2122775897
1.2115888260
1.2098673397
1.2096928943
1.2088598211
1.2057900156
1.2148378084
1.2193204553
1.2167785763
1.2140321593
1.2141297289
1.2202579133
1.2422918679
1.2491210675
1.2479740523
1.2478640035
1.2285628387
1.2053523045
1.2076657915
1.2339647057
1.2078263370
1.2396653023
1.2074328970
1.2020512472
1.2161420279
1.2438087214
1.2273628748
1.2442940256
1.2503990926
1.2505471044
1.2345396640
1.2072170750
1.2051196818
1.2396596895
1.2055990662
1.2418372545
1.2133398246
1.2013685146
1.2222308028
1.2469814454
1.2168432719
1.2181670396
1.2211813480
1.2075911938
1.2125186103
1.2230223487
1.2187577144
1.2032371843
1.2175694440
1.2168076012
1.2195559248
1.2175791044
1.2101954484
1.2109526018
1.2234407849
1.2162617604
1.2241483301
1.2125557410
1.2193666692
1.2173817495
1.2225013406
1.2101965572
1.2094282530
1.2217168715
1.2186728017
1.2183843392
1.2163102257
1.2199037045
1.2147295307
1.2132915112
1.2240047067
1.2147024555
1.2238283700
1.2146233954
1.2347421608
1.2322562411
1.2079893112
1.2364499235
1.2246898621
1.2422773236
1.2330700416
1.2384730074
1.2007376458
1.2338647778
1.1994099087
1.2114814978
1.2387773968
1.2364757212
1.2357313016
1.2487444206
1.2027476642
1.2076733252
1.2293476571
1.2138687026
1.2373683645
1.2271083085
1.2281108562
1.2350427965
1.2459386507
1.2370536747
1.2393426753
1.2394453948
1.2340853401
1.2297949252
1.2045839887
1.2349474707
1.2313995588
1.2460587047
1.2307928512
1.2391980654
1.2065201361
1.2357017065
1.1969137399
1.2178088990
1.2402750931
1.2353405191
1.2334824473
1.2505396258
1.2032842784
1.2041529016
1.2360245568
1.2217753599
1.2396458225
1.2232194275
1.2318510686
1.2331940449
1.2498191863
1.2380591938
1.2391140346
1.2415611432
1.1712664968
1.2228306012
1.2118284525
1.2228480691
1.2095006599
1.2245412635
1.2272885533
1.2175740544
1.2230026385
1.2187941961
1.1897375379
1.2276871486
1.1829028589
1.1816356324
1.2196200514
1.2217428907
1.2143389136
1.1846110436
1.2221693242
1.2105087640
1.2123387776
1.1972995282
1.2283513336
1.2064377757
1.2193113506
1.2218236067
1.1652913253
1.2246382134
1.1657467967
1.2200732790
1.2156005232
1.2225215356
1.2178304677
1.2250025505
1.2280169877
1.2195816649
1.2302054126
1.2255555727
1.1893687189
1.2266127349
1.1787450634
1.1889118951
1.2225326038
1.2211193422
1.2102058765
1.1761239997
1.2227401160
1.2036295134
1.2151527152
1.2282550634
1.2172556078
1.2207806888
1.1674101204
1.2261777727
1.2270617632
1.2465126667
1.2312562222
1.2294192614
1.2366343160
1.2338693873
1.2405744541
1.2444092780
1.2191212311
1.2327296683
1.2458292543
1.2305133588
1.2327203705
1.2369793755
1.2051440278
1.2353268092
1.2260111963
1.2281134963
1.2317598710
1.2185598537
1.2419519805
1.2335986433
1.2349497192
1.2357399064
1.2303564523
1.2442366298
1.2353261119
1.2438918781
1.2256536348
1.2473829407
1.2195006111
1.2393453168
1.1992619136
1.2230609369
1.2281009151
1.2444738318
1.2433007301
1.2317630970
1.2426653057
1.2421868608
1.2387789111
1.2384784403
1.2462220969
1.2394331814
1.2080011218
1.2370567829
1.2342373346
1.2378091252
1.2301052171
1.2465148578
1.2311118980
1.2405511657
1.2278016978
1.2326842637
1.2313096156
1.2380306202
1.2452114683
1.2266804760
1.2330808941
1.2472316142
1.2313536309
1.2408072649
1.2116331260
1.2366565128
1.2279528767
1.2232321410
1.2232309696
1.2433675219
1.2360136966
1.2358635755
1.2373708034
1.2309919981
1.2430790655
1.2424298363
1.2229306109
1.2498122004
1.2233008233
1.2378279318
1.2392163577
1.1983946209
1.2185628110
1.2428318060
1.2425278046
1.2338542622
1.2408444825
1.2405567927
1.2380611288
1.2391180708
1.2470225086
1.2440144419
1.2024638286
1.2357054261
1.2359046618
1.2116085669
1.2175424889
1.2522541239
1.2503385848
1.2266304172
1.2004812966
1.2145005921
1.2269404998
1.1787426473
1.2475569265
1.2293587279
1.2225378617
1.2038771482
1.2515219332
1.2350435880
1.2187901129
1.2281250015
1.2227200041
1.1665442075
1.1971501651
1.2524191028
1.2267076774
1.2005055916
1.2507840125
1.2506782217
1.1712659677
1.1934849959
1.1970617080
1.1970622277
1.1929155281
1.2166064790
1.2255614982
1.2482198149
1.1712471904
1.1953126479
1.2448047063
1.2276504222
1.2187040276
1.2472971049
1.2104994401
1.1939140851
1.2014234730
1.2134326062
1.2497552934
1.2201120909
1.2203854956
1.2524373489
1.2495283732
1.2258883119
1.2108668294
1.2264349672
1.1893657497
1.2451724788
1.2200743064
1.1953127624
1.2504836353
1.2405978003
1.2255513665
1.2307270969
1.2245615710
1.1700599635
1.2035691287
1.2521418207
1.2270462629
1.2104954916
1.2514178459
1.2495920056
1.1699621912
1.1897349824
1.1889119398
1.1731254699
1.1933448843
1.2118386259
1.2242981536
1.2487252134
1.1652901763
1.2480042816
1.2302011256
1.2002931822
1.2099985059
1.2488861850
1.2203510945
1.2005090104
1.1956913068
1.2482794088
1.2106375286
1.2350346826
1.1971486679
1.2369803134
1.2447966852
1.2458320709
1.2333032309
1.2100060596
1.1800011509
1.2357978857
1.1691688693
1.2377991767
1.1632592477
1.2416582965
1.1840291520
1.2396472341
1.2089716265
1.1956944485
1.1805349225
1.2396510661
1.2331956939
1.2419544426
1.1700477916
1.2349446534
1.2308055201
1.2388130995
1.2232249559
1.2416637141
1.1626386234
1.1955573090
1.2465157059
1.2353441715
1.2343030309
1.2031264013
1.2270556286
1.2288893654
1.2444122653
1.2389116071
1.2282635469
1.2281735964
1.2400731839
1.2129855997
1.1853733843
1.2308270938
1.2474963902
1.2318539781
1.2428803040
1.2461703437
1.1969286995
1.1904946730
1.2428827478
1.2429842737
1.2116059622
1.2067912948
1.2417563308
1.2145862758
1.2281178564
1.2405061441
1.2023630851
1.2405886342
1.2035674703
1.2321305859
1.2479979006
1.2452144028
1.2282646635
1.2454109808
1.2014291673
1.1872881997
1.2389675468
1.1649792872
1.2430585557
1.1646060642
1.1881585435
1.2054732748
1.1929165900
1.1739288017
1.2344950968
1.2417581074
1.2399086138
1.1725734884
1.2358589181
1.2475378736
1.2421927733
1.1612832226
1.2048562061
1.2462730386
1.2276658207
1.1997080407
1.2313902864
1.2433704266
1.2461654246
1.2321296156
1.2358263643
1.2078505747
1.1822355958
1.2465183625
1.2455737689
1.1886529639
1.1911489198
1.2441972612
1.2462261675
1.2201073101
1.2163659784
1.2433773015
1.2236157145
1.2307195479
1.2311175433
1.1933446031