<VTKFile type="UnstructuredGrid" version="0.1">
	<UnstructuredGrid>
		<Piece NumberOfPoints="1862" NumberOfCells="3498">
			<CellData>
				<DataArray type="Int32" Name="type" NumberOfComponents="1" Format="ascii">
0
0
0
0
0
0
0
0
0
0
0
0
0
0
0
0
1
0
0
1
0
0
0
0
0
0
0
0
0
0
0
0
0
1
0
0
0
0
0
0
0
0
0
0
0
0
0
0
0
0
1
0
0
0
0
0
0
0
0
0
0
1
0
0
0
0
0
0
0
0
0
0
0
0
0
0
0
0
0
0
0
0
0
0
0
0
0
0
0
0
0
0
0
0
0
0
0
0
0
0
0
0
0
0
0
0
0
0
0
0
0
0
0
0
0
0
0
0
0
0
0
0
0
1
0
0
0
0
0
0
0
0
0
0
0
0
0
0
0
0
0
0
0
0
0
0
0
0
0
0
0
1
0
1
1
0
0
0
0
0
0
0
0
0
0
0
0
0
1
0
1
0
0
0
0
1
0
0
0
0
0
0
0
0
1
1
0
0
0
0
0
1
0
0
0
0
0
0
0
0
1
0
0
0
0
0
0
0
0
0
0
0
0
0
0
0
0
0
0
0
0
0
0
0
0
0
0
0
0
0
0
0
0
1
0
0
0
0
0
0
0
0
0
0
0
0
0
0
0
0
0
0
0
0
0
0
0
0
0
0
0
0
0
0
0
0
0
0
0
0
0
0
0
0
0
0
0
0
0
0
0
1
0
0
0
0
0
0
0
0
0
0
0
0
0
0
0
0
0
0
0
0
0
0
0
0
0
0
0
0
0
0
0
0
0
0
0
0
0
0
0
0
0
0
0
0
0
0
0
0
0
0
1
0
0
0
0
0
0
0
0
0
0
0
0
0
0
0
0
0
0
0
0
0
0
0
0
0
0
0
0
0
0
0
0
0
0
0
0
0
0
0
0
0
0
0
0
0
0
0
0
0
0
0
0
0
0
0
0
0
1
0
0
0
0
0
0
0
0
0
0
0
0
0
0
0
0
0
0
0
0
0
0
0
0
0
0
0
0
0
0
0
0
0
0
0
0
0
0
0
0
0
0
0
0
0
0
0
0
0
0
0
0
0
0
0
0
0
0
0
0
0
0
0
0
0
0
0
0
0
0
0
0
0
0
0
0
0
0
0
0
0
0
0
0
0
0
0
0
0
0
0
0
0
0
0
0
0
0
0
0
0
0
0
0
0
0
0
0
0
0
0
0
0
0
0
0
0
0
0
0
0
0
0
0
0
0
0
0
0
0
0
0
1
0
0
0
0
0
0
0
0
0
0
0
0
0
0
0
0
0
0
0
1
0
0
0
0
0
0
0
0
0
0
0
0
0
0
0
0
0
0
0
0
0
0
0
0
0
0
0
0
0
0
0
0
0
0
0
0
0
0
0
0
0
0
0
0
0
0
0
0
0
0
0
0
0
1
0
0
0
0
0
0
0
0
0
0
0
0
0
0
0
0
0
0
0
0
0
0
0
1
0
0
0
0
0
0
0
0
0
0
0
0
0
0
0
0
0
0
0
1
0
0
0
1
0
0
0
0
0
0
0
0
0
0
0
0
0
0
0
0
0
0
0
0
0
0
0
0
0
1
0
0
0
0
0
0
0
1
0
0
0
0
0
0
0
0
0
0
0
0
0
0
0
0
0
0
0
0
0
0
0
0
0
0
1
0
0
0
0
0
0
0
1
0
0
0
0
0
0
1
0
0
0
0
0
0
0
0
0
0
0
0
0
0
0
0
0
0
0
0
0
0
0
0
0
0
0
0
0
0
0
0
0
0
0
0
0
0
1
0
0
0
0
0
1
0
0
0
0
0
0
0
1
0
0
0
0
0
0
0
0
0
0
0
0
0
1
0
0
0
0
0
0
0
0
0
0
0
0
0
0
0
0
0
0
0
0
0
0
0
0
0
0
0
0
0
0
0
0
0
0
0
0
0
0
0
0
0
0
0
0
0
0
0
0
0
0
0
0
0
1
0
0
0
0
0
0
0
0
0
0
0
0
0
0
0
0
0
0
0
1
0
0
0
0
0
0
0
0
0
1
0
0
0
0
0
0
0
0
0
0
0
0
0
0
0
0
0
0
0
0
0
0
0
0
0
0
0
0
0
1
0
1
0
0
0
0
0
0
0
0
0
0
0
0
0
0
0
0
0
0
0
0
0
0
0
0
0
0
0
1
0
0
0
1
0
0
0
0
0
0
0
0
0
0
0
0
0
0
0
0
0
0
0
0
0
0
0
0
0
0
0
0
1
0
0
0
0
0
0
0
0
0
0
0
0
0
0
0
0
0
0
0
0
0
0
0
0
0
1
0
0
0
0
0
0
0
0
0
0
0
0
0
0
0
0
0
0
0
0
0
0
0
1
0
0
0
0
0
0
1
0
0
0
0
0
0
0
0
0
0
0
1
0
0
0
0
0
0
0
0
0
0
0
0
0
0
0
0
0
0
0
0
1
0
0
0
0
0
0
0
0
0
0
0
1
0
0
0
0
0
0
0
0
0
0
0
0
0
0
0
0
0
0
0
0
0
1
0
0
0
0
0
0
0
0
0
1
1
0
1
0
1
0
0
0
0
0
0
0
0
0
0
0
1
0
0
0
0
0
1
1
0
0
0
0
0
0
1
0
0
0
0
0
1
1
1
0
0
0
0
0
0
0
0
0
0
0
0
1
1
0
0
1
0
0
0
0
0
1
0
0
0
1
0
1
0
0
0
0
0
0
0
1
0
0
0
0
0
0
0
1
0
0
1
0
0
0
0
0
0
0
0
0
0
0
0
0
0
0
1
0
0
0
0
0
0
0
0
0
0
0
0
0
0
0
0
0
0
0
0
0
0
0
0
0
0
0
0
0
0
0
0
0
0
0
0
1
0
0
0
0
0
0
1
0
0
0
1
0
0
0
0
0
0
0
0
0
0
0
1
0
0
0
0
0
0
0
0
0
0
0
0
0
0
0
0
0
0
0
0
0
0
0
0
0
0
0
0
0
0
0
0
0
0
0
0
0
0
0
0
1
1
0
0
0
0
0
0
0
0
0
0
0
0
0
1
0
0
0
0
0
0
0
0
0
0
0
0
0
0
0
0
0
0
0
0
0
0
0
0
0
0
0
0
0
0
0
0
0
0
0
0
0
0
0
0
0
0
0
0
0
0
0
0
0
0
0
0
0
0
0
0
0
0
0
0
0
0
0
0
0
0
0
0
0
0
0
0
1
1
0
0
0
0
0
0
0
0
1
0
0
0
0
0
0
0
0
0
0
0
0
0
0
0
0
0
0
0
0
0
0
0
1
0
0
0
0
0
0
0
0
0
0
0
0
0
0
0
0
1
0
0
0
0
0
0
0
0
0
0
0
0
0
0
0
0
0
0
0
0
0
0
0
0
0
0
0
0
0
0
0
0
0
0
0
0
0
0
0
0
0
0
0
0
0
0
0
0
0
0
0
0
0
0
0
0
0
0
0
0
0
0
0
0
0
0
0
0
0
0
0
0
0
0
0
0
0
0
0
0
0
0
0
0
0
0
0
0
0
0
1
1
0
0
0
0
0
1
0
0
0
0
0
0
0
0
0
0
0
0
1
0
0
0
0
0
0
0
0
0
0
0
0
0
0
0
0
0
0
0
0
0
0
0
0
0
0
0
0
0
0
0
0
0
0
0
0
0
0
0
0
0
0
0
0
0
0
0
0
0
0
0
0
0
1
0
1
0
0
0
0
0
0
0
0
0
0
0
0
0
0
0
0
0
0
1
0
0
0
0
0
0
0
0
0
0
0
0
0
0
0
0
0
0
0
0
0
0
0
0
0
0
0
0
0
0
0
0
0
0
0
0
0
0
0
0
0
0
0
0
0
0
0
0
0
0
0
0
0
0
0
0
0
0
0
0
0
0
0
0
0
0
0
0
0
0
1
0
0
0
0
0
0
0
0
0
0
1
0
0
0
0
0
0
0
0
0
0
0
0
0
0
0
0
0
0
0
0
0
0
0
0
0
0
0
0
0
0
0
0
0
0
0
0
0
1
0
0
0
0
0
0
0
0
0
0
0
0
0
0
0
0
0
0
0
0
0
0
0
0
0
0
0
0
0
0
0
0
0
0
0
0
0
0
0
0
0
0
0
0
0
0
0
0
0
0
0
0
0
0
0
0
0
0
0
0
0
0
0
0
0
0
0
0
0
0
0
0
0
0
0
0
0
0
0
0
0
1
0
0
0
0
0
0
0
0
0
0
0
0
0
0
0
0
0
0
0
0
0
0
0
0
0
0
0
0
0
0
0
0
0
0
0
0
0
0
0
0
0
0
0
0
0
0
0
0
0
0
0
0
0
0
0
0
0
0
0
0
0
0
0
0
0
0
0
0
0
0
0
0
0
0
0
0
0
0
0
0
0
0
0
0
0
0
0
0
0
0
0
0
0
0
0
0
0
0
0
0
0
0
0
0
0
0
0
0
0
0
0
0
0
0
0
0
0
0
0
0
0
0
0
1
0
0
0
0
0
0
0
0
0
0
0
0
0
0
0
0
0
0
0
0
0
0
0
0
0
0
0
0
0
0
0
0
0
0
0
0
0
0
0
0
0
0
0
0
0
0
0
0
0
0
0
0
0
0
0
0
0
0
0
0
0
0
0
0
0
0
0
0
0
0
0
0
0
0
0
0
0
0
0
0
0
1
0
0
0
0
0
0
0
1
0
0
0
0
0
0
0
0
0
0
0
0
0
0
0
0
0
0
0
0
0
0
0
0
0
0
0
0
0
0
0
0
0
0
0
0
0
1
0
0
0
0
0
0
0
0
0
0
0
0
0
0
0
0
0
0
0
0
0
1
0
0
0
0
0
0
0
0
0
0
0
0
1
1
0
0
0
0
0
0
0
0
0
0
0
0
0
0
0
1
1
0
1
0
0
0
0
0
0
0
0
0
1
0
0
0
0
0
0
1
0
0
0
0
0
0
0
0
0
0
1
0
0
0
0
1
0
1
0
0
0
0
0
0
0
1
0
0
0
1
0
0
0
1
0
1
1
0
0
1
1
0
0
0
1
0
0
0
1
0
0
0
0
0
0
0
0
0
1
0
0
0
0
0
0
1
0
0
0
0
0
0
0
0
0
0
0
0
0
0
0
0
0
0
0
0
0
0
0
0
0
0
0
1
0
0
1
0
0
0
0
0
0
0
0
0
0
0
0
0
0
0
0
0
0
1
0
0
1
0
0
0
0
0
0
0
0
0
0
0
1
0
0
1
0
0
0
0
0
0
0
0
0
0
0
1
1
0
0
0
0
0
0
0
0
0
0
0
0
1
0
0
0
0
0
0
0
0
0
0
0
0
0
0
0
0
0
1
0
0
0
0
0
0
0
0
0
0
0
0
0
0
0
0
0
1
0
0
0
0
0
0
0
0
0
0
0
0
0
0
0
0
0
0
0
0
0
0
0
0
0
0
0
0
0
0
0
0
0
0
0
0
0
0
0
0
1
0
0
0
0
0
0
0
0
0
0
0
0
0
0
0
0
0
0
0
0
0
0
0
0
0
0
0
0
0
0
0
0
0
0
0
0
0
0
0
0
0
0
0
0
0
1
0
0
0
0
0
0
0
0
0
0
0
0
0
0
0
0
0
0
0
0
0
0
0
0
0
0
0
0
0
0
0
0
0
0
0
0
0
0
0
0
0
0
0
0
0
0
0
1
0
0
0
0
0
0
0
0
0
0
1
0
0
0
0
0
0
0
0
0
0
0
0
0
0
0
1
0
0
1
0
0
0
0
0
0
0
0
0
0
0
0
0
0
0
0
0
0
0
0
0
0
0
1
0
0
0
0
0
0
0
0
0
0
0
0
0
0
0
0
0
0
0
0
0
0
0
0
0
0
0
0
0
0
0
0
0
0
0
1
0
0
0
0
0
0
0
0
0
0
0
0
0
0
0
0
0
0
0
0
0
0
0
0
0
0
0
0
0
0
0
0
0
0
0
0
0
0
0
0
0
0
0
0
0
0
0
0
0
0
0
0
0
0
0
0
0
0
0
0
0
0
0
0
0
0
0
0
0
0
0
0
0
0
0
0
1
0
0
0
0
0
0
0
0
0
0
0
0
0
0
0
0
0
0
0
0
0
0
0
0
0
0
0
0
0
0
0
0
0
0
0
0
0
0
0
1
0
0
0
0
0
0
0
0
0
0
0
0
1
1
0
0
0
0
0
0
0
0
0
0
0
0
0
0
0
0
0
0
0
0
0
0
0
0
0
0
0
0
0
0
0
0
0
0
0
0
0
0
0
0
0
0
0
0
0
0
0
0
0
0
0
0
0
0
0
0
0
0
0
0
0
0
0
0
0
0
0
0
0
0
0
0
0
0
0
0
0
0
0
0
0
0
0
0
0
0
0
0
0
0
0
0
0
0
0
0
0
0
0
0
0
1
0
1
0
0
0
0
0
0
0
1
1
1
1
0
0
0
0
0
0
0
0
0
0
0
0
0
0
0
0
0
0
0
0
0
0
0
0
0
0
0
0
1
1
0
0
0
0
0
0
0
0
0
0
0
0
0
0
0
0
0
0
1
0
0
0
0
0
0
0
1
1
0
1
1
0
0
1
0
0
0
0
0
0
0
1
0
1
0
0
0
0
0
0
0
0
0
0
0
0
0
0
0
0
0
0
0
0
0
0
0
0
0
0
0
1
1
0
0
0
1
1
0
0
0
0
1
0
0
1
0
1
0
0
0
0
0
1
0
0
0
1
0
0
0
0
0
0
0
0
0
0
0
0
0
0
0
0
0
0
0
0
0
0
0
0
0
0
0
1
0
0
0
0
0
0
1
0
0
0
0
0
0
0
0
0
0
0
0
0
0
0
0
0
0
0
0
0
0
0
0
0
0
0
0
0
1
0
1
0
0
0
0
0
0
0
1
0
0
0
0
0
0
0
0
0
0
0
1
0
0
0
0
0
0
0
0
0
1
0
0
0
0
0
0
0
1
0
0
0
0
0
0
0
1
0
0
0
0
0
0
0
0
0
0
0
0
0
0
0
0
0
0
0
1
0
1
0
0
0
0
0
1
0
0
0
0
0
0
0
0
0
0
0
0
0
0
0
0
0
0
0
0
0
0
0
0
0
1
0
1
0
0
0
0
0
0
0
0
0
1
0
0
0
0
0
1
0
0
0
0
0
0
0
0
0
0
0
0
0
0
0
1
0
0
0
0
0
0
0
0
1
0
0
0
0
0
0
0
0
0
0
0
0
0
0
0
0
0
0
0
0
0
0
0
0
0
0
0
0
0
0
1
0
0
0
0
0
0
0
0
0
0
0
0
0
0
0
0
1
0
0
0
0
0
0
0
0
1
0
0
0
0
0
0
0
0
0
1
0
0
0
0
0
1
0
0
0
0
0
0
0
0
0
0
0
0
0
0
0
0
0
0
0
1
0
0
0
0
0
0
1
0
0
0
0
0
0
0
0
1
0
0
0
0
0
0
0
0
0
0
0
0
0
0
1
0
0
1
0
0
0
1
0
0
0
0
0
0
0
0
0
0
0
0
0
0
0
0
1
0
0
0
0
0
0
0
0
0
0
1
0
1
0
0
0
0
0
0
1
0
0
0
0
0
0
0
0
0
0
0
0
0
0
0
0
0
0
0
0
0
0
0
0
0
0
0
1
1
0
0
0
0
0
0
1
0
0
0
0
0
0
0
0
0
0
0
0
0
1
0
0
0
0
0
0
0
1
0
0
0
0
0
0
0
0
0
0
0
0
0
0
0
0
0
0
0
0
0
0
0
0
0
0
0
1
0
0
0
0
0
0
0
0
0
0
1
0
0
1
0
0
0
0
0
0
0
0
0
0
0
0
0
0
0
0
0
0
0
0
0
0
0
0
0
0
0
0
0
1
0
0
0
0
0
0
0
1
0
0
0
0
0
0
0
1
0
0
0
0
1
0
0
0
0
0
0
0
0
0
0
0
1
0
1
0
0
0
1
0
				</DataArray>
				<DataArray type="Float64" Name="h" NumberOfComponents="1" Format="ascii">
1.1314803715
1.1314439985
1.1435275360
1.1343809082
1.1447551958
1.1421014745
1.1383502770
1.1294661862
1.1357780966
1.1240161670
1.1318366998
1.1402136170
1.1264168156
1.1290199774
1.1292331918
1.1184105596
1.1369087774
1.1234982507
1.1299726350
1.1312250124
1.1479239833
1.1250583759
1.1361661155
1.1499667631
1.1340962292
1.1155892691
1.1280661990
1.1602345023
1.1436584083
1.1269093221
1.1290743394
1.1382960869
1.1224863599
1.1439345607
1.1692696746
1.1519560729
1.1576099943
1.1360696271
1.1591205679
1.1513831410
1.1457948232
1.1648367055
1.1308014534
1.1445823973
1.1539474838
1.1550753159
1.1386589488
1.1759897789
1.2262568944
1.2179511219
1.1527553803
1.1534767607
1.1470506535
1.1909935939
1.1629738573
1.1298812171
1.1577533350
1.1899003981
1.1951029095
1.1894703289
1.2092374500
1.2029672787
1.2248345388
1.1559072183
1.1482336370
1.1722528251
1.2099493209
1.2161257255
1.2027866467
1.1959722530
1.1966009695
1.1657214297
1.1353041892
1.1978187417
1.1967182399
1.1626151758
1.1905310179
1.2084066619
1.1832581006
1.1624038242
1.2213662382
1.1788438963
1.2423626211
1.2076396332
1.1531012323
1.1717368546
1.2261128491
1.1993531467
1.2106369566
1.2354337606
1.2272389241
1.1655453492
1.2146963385
1.2278851225
1.1806053226
1.1743012955
1.1907177677
1.1564529270
1.1643345250
1.2256969381
1.2389268918
1.2215609655
1.1896148474
1.1824111500
1.1190307493
1.2025645100
1.1813562072
1.2308785305
1.2065876876
1.1832220426
1.2237185808
1.2315044844
1.2210973902
1.2263735158
1.1986323247
1.2445879907
1.1923674708
1.1220926003
1.2368539891
1.2077424238
1.1202308141
1.1936944443
1.1723080501
1.1207432283
1.2204101378
1.2344337764
1.2015274061
1.1192938979
1.2434033805
1.2446367667
1.2376706115
1.1842711951
1.2109034567
1.2483384076
1.1230475576
1.2352577357
1.1122626709
1.2494031503
1.2322760834
1.1163898627
1.1175442654
1.1220543027
1.2421914484
1.1206490838
1.1753069345
1.2341248229
1.1136197816
1.2536740671
1.1202560956
1.2571550688
1.1110148835
1.2515762925
1.2525394894
1.2592431175
1.2276201602
1.2503307290
1.2569255308
1.1170569318
1.2571853869
1.1166331829
1.1166568581
1.2538824367
1.1112013882
1.1164799538
1.1180487432
1.2484755025
1.1266009251
1.1132131648
1.1188547496
1.2525611418
1.2559473795
1.1179637382
1.2579287998
1.1156918039
1.1284890731
1.2605434059
1.1216642401
1.2528804703
1.2601672590
1.1156034963
1.2482616688
1.1368585825
1.1157522369
1.1756598502
1.1176605796
1.1174114627
1.1341821428
1.2591462116
1.1183599347
1.1180298350
1.1463055420
1.2600657548
1.1163418338
1.1430891032
1.2600672506
1.2509668431
1.1126814844
1.1563476936
1.1527594998
1.2583134803
1.1179775954
1.1812540464
1.1176385552
1.2592565733
1.1663985153
1.1115211053
1.1105802667
1.1087269101
1.1627826654
1.1182484628
1.1422903681
1.1171267954
1.1119675894
1.1119357343
1.1091036391
1.1525080311
1.1135949250
1.1101730315
1.1328452646
1.1143273639
1.1724212163
1.2281323642
1.1247015642
1.2134829292
1.1839222119
1.2555615441
1.2421171911
1.1993058532
1.1756080910
1.2354207685
1.2577463325
1.2206950150
1.1917526333
1.2574978760
1.2523481323
1.2065016861
1.1456863942
1.1067439466
1.1147432816
1.1152030410
1.1412611284
1.1046296173
1.1079631780
1.1192612545
1.1072049296
1.1099973629
1.1099332887
1.1355983038
1.1050489571
1.1062887890
1.1100580715
1.1311188717
1.1084284926
1.1562332541
1.1520561071
1.1084107522
1.1137346208
1.1078936963
1.1119396334
1.2172280306
1.1222842157
1.1832134808
1.1970990828
1.2103796714
1.1886175738
1.2497655175
1.2526200747
1.1722793513
1.2562230334
1.2243112706
1.2381172617
1.1266293441
1.2317657869
1.2032260160
1.2102102470
1.1753003457
1.1903530023
1.2037131178
1.2172301102
1.1808196965
1.2386573793
1.2550359557
1.2535391608
1.2489507573
1.2314007489
1.2244921840
1.1960397154
1.1019125703
1.1060331864
1.1036803723
1.1059249294
1.1449060162
1.0996504376
1.1027750578
1.1113159553
1.1400917900
1.1162090585
1.1000610501
1.1016962356
1.1084142135
1.1041750820
1.1036012236
1.1340774149
1.1516945996
1.1559540405
1.1055754388
1.1289374476
1.1100673112
1.1042300329
1.1823013109
1.2005766235
1.1949295752
1.2533034596
1.1719354704
1.2335239728
1.2137472489
1.1192019050
1.2276467017
1.2488775654
1.1243292919
1.2069861565
1.1874184753
1.2200590993
1.2460150424
1.1888641323
1.1940982259
1.2008820769
1.2502063366
1.2070790018
1.2206396048
1.2344612244
1.2447973399
1.2517251615
1.1747836826
1.2133769467
1.1801787983
1.2268801817
1.1007856467
1.2323795609
1.1063444315
1.1392579905
1.1123422303
1.1013826781
1.1446834111
1.0935281895
1.0957688249
1.0973843808
1.0985806671
1.2181783282
1.1812256178
1.1514028312
1.1973663209
1.0982294399
1.0992324604
1.2206339507
1.0998345218
1.1829010990
1.1266808823
1.1054232325
1.2003144696
1.2071690780
1.2256249428
1.1041774770
1.1323500336
1.1566905365
1.0938165199
1.1706245554
1.1771102919
1.1891572564
1.0991364493
1.1894179242
1.2065180138
1.0962019424
1.2442602650
1.2099229906
1.2034192538
1.2415184190
1.0640161837
1.2283381528
1.1811921123
1.1715925317
1.2230481616
1.2495215262
1.1153939835
1.2154377652
1.1214360568
1.1860816524
1.1979098544
1.1926376897
1.0668597705
1.2475143132
1.1742557790
1.2037847794
1.1542122335
1.2398293909
1.2092422363
1.0516798214
1.0437795083
1.0454200721
1.1227766202
1.1871984241
1.2296979227
1.1035079901
1.2163756432
1.1401232634
1.2460589168
1.2218887194
1.1793641128
1.1921159505
1.0841409602
1.1979410123
1.1763652527
1.2069684464
1.1794301970
1.0942555402
1.2236033058
1.2186325033
1.1075007588
1.2020644319
1.1829506979
1.1707930371
1.1629370525
1.0906877549
1.2126142385
1.2214540040
1.1967737689
1.2351783929
1.0958225602
1.2016606830
1.1444973993
1.1853185247
1.2180332767
1.1930735141
1.2115961109
1.1861033944
1.1931049324
1.1950720383
1.2126728975
1.2302213909
1.1704546142
1.1777612263
1.1826682618
1.0914590744
1.1905747831
1.1746333657
1.0995197326
1.1877104846
1.1785848431
1.2016620630
1.1963238017
1.1889306161
1.2392097286
1.0991376356
1.1775176735
1.1315509598
1.1629371203
1.2108645313
1.2051093622
1.1831773147
1.2065800307
1.0932116053
1.1566688314
1.0859643680
1.2448257559
1.1189643068
1.2058799255
1.1922001281
1.1845803243
1.1356443370
1.0822725143
1.2362361268
1.1025070567
1.2180257832
1.1291889347
1.1713530259
1.1951309438
1.2006367135
1.0748557490
1.0890898097
1.0574887749
1.0513935052
1.1560912614
1.0828795839
1.2410424647
1.1860807977
1.1935611297
1.2243908255
1.0465329397
1.2003531972
1.0288858244
1.1755779056
1.1784417501
1.1979040736
1.0858648086
1.0516825252
1.0537008320
1.0921167730
1.1919421788
1.2117904908
1.0357480999
1.1793292260
1.1870451888
1.0557663865
1.0454202494
1.1227754959
1.1150438700
1.1899936026
1.0930935265
1.1662374779
1.1759760838
1.0465311074
1.1433422602
1.1799688406
1.1025060443
1.1702818090
1.0890884851
1.1851432255
1.1751540470
1.0849731852
1.0924480300
1.1433450862
1.1806052518
1.1763975266
1.2294356899
1.0778930245
1.1913895212
1.0177352063
1.1805616891
1.1630099017
1.1362196977
1.1924180595
1.0859633388
1.1858811645
1.0762163320
1.0822701464
1.1217446594
1.0858622303
1.0921157477
1.0930937367
1.1630099088
1.1560946456
1.1018448387
1.0261819192
1.0892473614
1.0597746451
1.0833742559
1.0353743856
1.1291900654
1.0807409133
1.0185076578
1.2107269519
1.0408581613
1.0758030777
1.1530946370
1.0813735281
1.1635429919
1.1512080120
1.0162498455
1.2005956596
1.2097180801
1.1205132390
1.0199479992
1.2051123504
1.0828780171
1.1391869893
1.2126892358
1.1150435036
1.1922034649
1.1769080865
1.2392013038
1.1054919690
1.1769852981
1.1842552737
1.1784210124
1.1829533939
1.0757400377
1.1708122483
1.1741420687
1.1799705705
1.1185119220
1.0728713267
1.2016761530
1.1793307618
0.9990133045
1.1756930450
1.0642227794
1.2302141112
1.2069864165
1.1877123664
0.9966712235
1.2351691882
1.1196590462
1.0413268557
1.1389565593
1.0062200254
1.1775218918
1.1358932781
1.0810039502
1.1976869041
1.0957290688
1.1515296033
1.1008482659
1.1970925990
1.0658118477
1.1967818712
1.0234266319
1.0827174044
1.1883200987
1.2186418150
0.9811984956
1.0621866025
1.0671488366
1.1854409100
0.9925386597
1.1741423891
1.0632606057
1.1761396932
1.0762149765
1.1054917823
1.1362204075
1.0778924929
1.2146217745
1.1697303725
1.0704864688
1.0849714981
1.0847359535
0.9862090741
1.1818949767
1.0813712630
1.0128953731
1.0827171226
0.9913370530
1.0284721574
1.1512088765
1.0924473422
1.1205135634
1.0758020774
1.1783053760
1.1840084771
1.1775762371
1.1756473864
1.0892473964
1.0638410179
1.1028169561
1.1242147572
1.2008614910
1.1828515691
1.1530944730
1.0419309855
1.1913798138
0.9975439275
1.0750941045
1.0705872475
1.0587734089
1.0142500081
1.1064131515
1.1409587578
1.0833737137
1.1770741269
1.0649917178
1.0766223540
1.0614487608
1.1766835769
1.1799503215
1.1861809677
1.1763004556
0.9792700609
1.0893169422
1.0654409970
1.0591984809
1.1903353823
1.1906114584
1.1217438308
1.0457594563
1.1021105461
1.0000789446
1.1773832543
1.0013451549
1.0134203956
1.1845793835
1.1824289852
1.0741565122
1.0541154733
1.1779850406
1.0367577386
1.0262036609
0.9967463950
1.1791906755
1.1841387495
1.1804669426
1.0179563873
1.0047888597
0.9920852450
0.9919490391
0.9985911681
1.1792442532
1.1798912986
1.1789292857
1.1788985805
1.0050975468
1.1807344651
1.1815525656
0.9881677624
1.1840057451
1.1828752923
0.9812002552
1.1822179715
1.0408578051
1.1835251965
1.0064688398
1.0078155560
1.1826223042
0.9925400281
1.1824778797
1.1870846927
1.0199498917
1.1883568942
1.0090807287
0.9904774323
1.1877731820
1.1928082728
1.0435281176
1.1355479634
1.1376016681
1.1375665396
1.1355026338
1.1372781021
1.1402224960
1.1318484264
1.1320446192
1.1427721708
1.1421203298
1.1447311166
1.1427370721
1.1357554945
1.1292552405
1.1383701677
1.1264951409
1.1320274349
1.1372646786
1.1259798903
1.1235067734
1.1343705897
1.1435140223
1.1300158433
1.1269151681
1.1209383804
1.1402639578
1.1294491274
1.1155897782
1.1341027038
1.1240100024
1.1241892011
1.1263904893
1.1471590628
1.1190080620
1.1314797707
1.1264866964
1.1290786598
1.1259610449
1.1439356413
1.1225159274
1.1383634487
1.1235863370
1.1513971672
1.1539052359
1.1369068711
1.1184001779
1.1308645859
1.1592096755
1.1402587230
1.1209297156
1.1458430156
1.1290133627
1.1312225706
1.1471491733
1.1360920033
1.1779042668
1.1250253825
1.1567191864
1.1241632200
1.1479191267
1.1314222236
1.1291461945
1.1673989304
1.1759951419
1.1189933982
1.1539725869
1.1527571917
1.1387496054
1.1601435652
1.1499470816
1.1435949998
1.1578319020
1.1483416864
1.1280121474
1.1627680037
1.1208342406
1.1538192424
1.1675236265
1.1693036765
1.1235511620
1.1471336782
1.1778997242
1.2227480538
1.2194192052
1.1290906539
1.1567097082
1.1611173203
1.1673402028
1.1519199995
1.1483381068
1.1359852403
1.1735618226
1.1692632078
1.2248232321
1.2161069890
1.1696852490
1.1576054437
1.1559508889
1.1674981543
1.1854444206
1.1883776738
1.1444887035
1.1978139839
1.1866631746
1.1657410325
1.1353764361
1.1963054172
1.1439819485
1.1453132590
1.1627567220
1.2092719610
1.1692997697
1.1647960842
1.1905313883
1.1965998403
1.2007132377
1.1967144174
1.1482505732
1.1385992038
1.2027876729
1.1635345931
1.1208284342
1.1959762235
1.1610998260
1.1735521532
1.1700797671
1.1696361654
1.2105925126
1.1778952735
1.2147522275
1.2262643566
1.1534163665
1.2194327399
1.1549855186
1.1788744130
1.2076181007
1.1767765149
1.2227669440
1.2179726992
1.2092337660
1.2029608331
1.1385111823
1.2151070974
1.2007230186
1.1951042953
1.1852803388
1.1866597038
1.1563439781
1.1379431829
1.1854430552
1.1635317228
1.1748430765
1.1629460886
1.2020941555
1.1963031916
1.2092663945
1.1298236059
1.1814263804
1.1991603696
1.1439107611
1.1909854720
1.1883781731
1.1894705548
1.1655930721
1.1898989590
1.1452182397
1.2146974411
1.2106025574
1.1824147717
1.1644093261
1.1767591919
1.1469734244
1.1778874109
1.2215681806
1.2076070574
1.2196912396
1.2020644295
1.1721966917
1.2389522419
1.2099771398
1.1761379197
1.1565269746
1.2159780354
1.1743463564
1.1794566133
1.2147879663
1.2257023658
1.2025373882
1.1700231434
1.2455618283
1.1814000060
1.2065842745
1.2315098626
1.2151037887
1.1991650770
1.2210950526
1.1748319952
1.1625778069
1.2201943381
1.1852791800
1.2084085099
1.1378751725
1.2295445614
1.1563032238
1.2236972577
1.1832552850
1.2020942615
1.2196901608
1.2455296229
1.1882086216
1.2159702580
1.1717019011
1.1936976105
1.2075433624
1.1761342840
1.1183574239
1.1794464053
1.2020686463
1.1530442289
1.1623401520
1.2261066932
1.2423259065
1.2213600390
1.1923847212
1.1832558045
1.2076478606
1.1202294110
1.1993697645
1.1469142823
1.2295398092
1.1842879991
1.2160081924
1.1159360764
1.2344431713
1.2175372303
1.2294344506
1.2106448032
1.1805799982
1.2278977007
1.2415100218
1.2354143881
1.2272367344
1.2334022218
1.1894580244
1.2203979854
1.2015256840
1.2202375781
1.2446553372
1.1896029099
1.2419968158
1.2127957624
1.1881942959
1.1183587514
1.2075563516
1.2282536982
1.1230480412
1.2352671507
1.2108877997
1.1190326604
1.1907245328
1.1753280123
1.2090632940
1.1220534209
1.2170589978
1.1159390245
1.2414909315
1.2263800378
1.2308740542
1.1150917123
1.1894532119
1.2294341512
1.1986320554
1.1202537815
1.2160492118
1.2422061572
1.1198215001
1.2445708336
1.2175418977
1.2341339951
1.2333953675
1.1813475339
1.1215367007
1.1661494054
1.2060014462
1.2534770928
1.2419762413
1.2282622156
1.1122875948
1.2475038744
1.2386616258
1.2316434948
1.2077558738
1.2128542772
1.2515871196
1.1220916481
1.2355924629
1.2368449314
1.1247086081
1.1110062308
1.2525543401
1.2276288960
1.1150947522
1.1198236639
1.1132158323
1.1180447550
1.2170718381
1.2558878959
1.1215381302
1.1184031743
1.2553851737
1.2019388367
1.2091107618
1.1207448235
1.2433903389
1.1166728665
1.1194737435
1.1722882213
1.2376604521
1.1250969429
1.1111954187
1.2403670939
1.2539012267
1.1192965100
1.2571989870
1.2316347806
1.1122703481
1.2483268430
1.2535400591
1.1981876127
1.2386389384
1.2486565014
1.2493876318
1.2579397325
1.1267270449
1.1144060939
1.2322674822
1.1247070416
1.2060543808
1.1122953562
1.2534647800
1.1661262457
1.2355833730
1.2525804915
1.2412533969
1.2474900070
1.2559580860
1.1156871112
1.2571411397
1.1157484198
1.1932768951
1.1194764052
1.1184064478
1.2455434670
1.2559130731
1.2584838870
1.1206186197
1.2536536978
1.1136185985
1.1155991728
1.2553668077
1.1250957184
1.2019711475
1.1147330151
1.1175478790
1.2482847554
1.2403556501
1.1216952429
1.2374874962
1.1163757889
1.2558728577
1.1171150143
1.1183569970
1.2503110481
1.2569137961
1.1144113905
1.1897067105
1.2535239361
1.1232928053
1.1267262202
1.1982190771
1.1176573796
1.2486384655
1.2592344755
1.1170616037
1.2412432615
1.1342315519
1.1843983824
1.2600762731
1.1265557981
1.1171186888
1.2455153516
1.2509960423
1.1147367029
1.2584726311
1.2374779973
1.2512523422
1.1172439561
1.2558984393
1.1932873907
1.1177993201
1.2600746558
1.2455041349
1.1164841283
1.2484509444
1.1431312126
1.2550713836
1.1166366649
1.1812600569
1.2601425007
1.1179668137
1.1176352331
1.1284476582
1.2592664473
1.1897161727
1.1188571115
1.1179741279
1.1232933970
1.1527891634
1.2595420405
1.2601584587
1.1145745427
1.1172474381
1.1178026432
1.1171235210
1.2550521447
1.2512258232
1.1133811138
1.2482734995
1.1368178343
1.2454939358
1.2605348812
1.1843955564
1.1167706989
1.1171432502
1.2528530489
1.1119637001
1.1628015927
1.1462753184
1.2577581643
1.2601334413
1.1180333106
1.2595317362
1.2580302077
1.2591429768
1.1756488545
1.1174144892
1.2591358948
1.1724311121
1.1099300145
1.1100016073
1.1112277555
1.1071998965
1.1563299947
1.1171468576
1.1627993215
1.1155255935
1.1192823667
1.1091696140
1.1145792192
1.1457000812
1.1163453979
1.1155901721
1.2482358319
1.1126868394
1.1132055628
1.1078914667
1.1074796284
1.1562404376
1.1137477531
1.1084248907
1.1356192067
1.1167743639
1.1147394342
1.1133853089
1.2561456225
1.1664034624
1.1663899484
1.2580176481
1.2244538256
1.1266536512
1.2591321092
1.2101427820
1.1808274854
1.2535626951
1.2386900371
1.2478392220
1.1960150987
1.1722857232
1.2317664964
1.2583004523
1.2171631025
1.1886147596
1.2562395603
1.2448067561
1.2498025198
1.2031760604
1.1422683608
1.1059292742
1.1051113164
1.1143311149
1.1162217511
1.1449101304
1.1091746015
1.1627912465
1.1112332575
1.1131167328
1.1626043757
1.1027732863
1.1060307740
1.1155290113
1.1182258566
1.1087324860
1.1105769141
1.1115248136
1.1328174695
1.1036015855
1.1042278306
1.1155939410
1.1100765076
1.1340869876
1.1101771133
1.1524930308
1.1559529157
1.1030854686
1.1100575108
1.1135819998
1.1074844030
1.1091070428
1.1132094320
1.2207404723
1.1243421809
1.1662010584
1.1801849274
1.1940861697
1.2070203007
1.1917637951
1.2447624710
1.2523204424
1.2502346239
1.1756037772
1.2574850419
1.2440657468
1.2205849802
1.2344767266
1.1246730731
1.2561285018
1.2354013555
1.2065544994
1.2135433144
1.1719341157
1.1874215227
1.2005408576
1.2136792229
1.1839193999
1.2420783315
1.2477998355
1.2533234825
1.1664024864
1.2555467531
1.2460545386
1.2276253234
1.2407372480
1.2281462086
1.1993383314
1.1007891939
1.1002913919
1.1079661640
1.1131202022
1.1013815745
1.1067399045
1.1412506336
1.1625075506
1.0973849434
1.1626043152
1.1046322253
1.1123491054
1.1446793358
1.1151884772
1.1051142304
1.0982310999
1.0992319938
1.1100612027
1.1061774360
1.1050493988
1.1311040229
1.1566813657
1.0978305600
1.1520509392
1.1030877891
1.1054289502
1.1323525440
1.1100483307
1.1062915573
1.1793626778
1.2037607456
1.1921122609
1.2550201049
1.1752992853
1.2296956683
1.2172918436
1.1214421221
1.2314006734
1.2406992408
1.2396078910
1.2460854624
1.1663364444
1.1222676953
1.2037458785
1.1903579690
1.2163240077
1.2489160631
1.1860840189
1.1971233190
1.1978906605
1.2525997128
1.1662064272
1.2359975373
1.2104438017
1.2243479797
1.2380867837
1.2415499199
1.2495416020
1.1715818444
1.2098699969
1.1832100665
1.2230162013
1.2440239419
1.2236033513
1.1853162286
1.1628145940
1.2020555861
1.1019091188
1.1002920138
1.2285591217
1.2155202424
1.1075038363
1.1812864319
1.1444905139
1.1113072563
1.1958897181
1.2126068596
1.2253773160
1.1036819488
1.1400902442
1.1625172703
1.0906899066
1.0942578847
1.0996506721
1.1763628397
1.1723569729
1.1931010798
1.0958226696
1.1882720204
1.2051459246
1.0944427025
1.2222104594
1.1833634621
1.1566584925
1.2004206330
1.1000600044
1.1016970879
1.2327295844
1.2166669526
1.0995226885
1.1848420329
1.1315496215
1.1055690119
1.1971486776
1.2108751165
1.2294369282
1.1061804350
1.1289304732
1.1516996533
1.0914189330
1.0914611267
1.0978305854
1.1732778127
1.1752855405
1.1915895272
1.1015274274
1.1918966833
1.2102756138
1.0932128088
1.0784860248
1.2410610026
1.1668508875
1.2134362667
1.1394223824
1.2344347566
1.2003333498
1.2447640958
1.0574858550
1.0505867804
1.0486177106
1.2243803618
1.0288850660
1.1020106086
1.1784354522
1.2359750861
1.1747887563
1.1170474185
1.2268987682
1.1512048281
1.2517077415
1.1189663352
1.2117551585
1.1191928150
1.1888648654
1.2009151772
1.0615484604
1.1899921358
1.0557670124
1.2448412301
1.1713430493
1.2070382884
1.1515300653
1.2362543359
1.2058486513
1.2395761723
1.0653718372
1.0583923271
1.0333058607
1.2305874755
1.0342816613
1.1166189640
1.1845787860
1.2335113339
1.1663487147
1.0957300151
1.2201062611
1.1356451748
1.2488540746
1.2179982047
1.1822999056
1.1949427712
1.0748565038
1.1951228486
1.1786526930
1.1942299219
1.2105349851
1.2285903865
1.1751529723
1.1812888619
1.1806030277
1.1820323648
1.0957663843
1.2275785349
1.1873133124
1.2226304016
1.2275818467
1.1704180856
1.1063397150
1.2054637702
1.1853499731
1.1723580008
1.1875383272
1.1660307071
1.1774107526
1.0935267407
1.2165492140
1.2253749567
1.1996902320
1.2005919452
1.2054520907
1.1924147627
1.2387390246
1.0985807987
1.1743124643
1.2051519852
1.1392625418
1.1706258449
1.1707924799
1.2107248835
1.2097153947
1.1875403667
1.1858785005
1.2141843943
1.1958944335
1.2155221086
1.2023594833
1.0944414126
1.1628283475
1.1882745679
1.1958284306
1.2214542319
1.1812283579
1.1981963366
1.2165112016
1.2016560392
1.2340546222
1.1713927702
1.1771123359
1.1792398832
1.1844803611
1.0938148588
1.2285543309
1.1880528425
1.2245922691
1.1745978925
1.0998307472
1.2071777839
1.1901667460
1.1650261860
1.1650260234
1.1797938746
1.0914169464
1.2181800492
1.2206355305
1.2049031888
1.1995261182
1.1914580221
1.2423577679
1.1015293502
1.1799685777
1.1861008262
1.2003207359
1.1266793780
1.1660313464
1.2146200298
1.2088030667
1.1891596767
1.1850272889
1.2182044015
1.1919002213
1.2102811654
1.2030889357
1.0962011060
1.1514138593
1.1848445890
1.1973726258
1.0878905016
1.2474986563
1.1854382283
1.1970891343
1.2305796411
1.1153897160
1.0513959646
1.2092847301
1.0342820034
1.1769842771
1.1948405686
1.1871985527
1.1401224889
1.1976834298
1.0872357557
1.0505893895
1.0858664524
1.2398064307
1.0450672469
1.1001055047
1.1913764013
1.2219136524
1.0365938630
1.1788863922
1.1901791499
1.0784854472
1.0437802058
1.1355724389
1.1355715403
1.1236908163
1.1742644970
1.1979585493
1.2038334190
1.0841401676
1.1218409278
1.0924499083
1.0640187235
1.1708091641
1.1751094372
1.0430485742
1.0306102428
1.1509135471
1.0426559180
1.1818877718
1.0858809441
1.2442398191
1.1883169879
1.1964755262
1.2283405823
1.0523897737
1.2034517400
1.0333068821
1.1759772987
1.1811947196
1.1218398736
1.2008583252
1.0895232147
1.0583947544
1.0834842604
1.2344188776
1.0413271199
1.0924831061
1.1945181996
1.2154782763
1.0430507667
1.1806482707
1.1894743923
1.0668590827
1.0486179404
1.1166179018
1.0629783069
1.1107243466
1.1668607350
1.1926429833
1.2039908214
1.0615477715
1.0959683791
1.0653736782
1.0494756907
1.1622751031
1.1763275600
1.0577682822
1.0365918700
1.1375950939
1.1813665248
1.1363883238
1.0872329386
1.1001035282
1.1704184668
1.0924489173
1.1873159364
1.1704550625
1.1622806906
1.0813228476
1.1757587544
1.0116728622
1.0808352839
1.0399141088
1.2135183656
1.0961318800
1.1822050322
1.0349453216
1.1375990067
1.0962176987
1.1822076604
1.1915923794
1.1774122007
1.0222920098
1.2165428959
1.2327270207
1.1702815425
1.1732801036
1.2135203065
1.0528980011
1.0757281877
1.1942331514
1.2108860180
1.1631482544
1.0258670173
1.1786495956
1.0783497164
1.1820345937
1.1894208143
1.1643112848
1.1527494166
1.2115935956
1.1628829456
1.0074915684
1.2323747351
1.1990167950
1.1752869650
1.1952907313
1.2071307082
1.1420460070
1.0211261365
1.1952941996
1.2040808312
1.0878890952
1.1216939835
1.1880570430
1.0717555238
1.0858640447
1.2065227346
1.1187664605
1.0895208788
1.0924813440
1.1638147079
1.0959693192
1.1844828316
1.1643114031
1.1805597661
1.1509194582
1.0980048633
1.1777628958
1.0173520730
1.0857296821
1.0541157707
1.0842848622
1.0267149396
1.1236914508
1.0762108421
1.1794281789
1.1831797643
1.1746342644
1.0078147479
1.2256235596
1.1913864040
1.2141856263
1.0335030484
1.0721135547
1.1905778033
1.1523694465
1.0143266804
1.0770073910
1.1797958551
1.2071281667
1.1638146486
1.1632099487
1.1554760859
1.0064674768
1.1981998485
1.2065830351
1.1268860649
1.0107470499
1.1963272513
1.2023626221
1.0858792556
1.1373050815
1.1889334332
1.0735851772
1.0834814335
1.2165304715
1.1107230131