<VTKFile type="UnstructuredGrid" version="0.1">
	<UnstructuredGrid>
		<Piece NumberOfPoints="1862" NumberOfCells="3498">
			<CellData>
				<DataArray type="Int32" Name="type" NumberOfComponents="1" Format="ascii">
0
0
0
0
0
0
0
0
0
0
0
0
0
0
0
0
1
0
0
1
0
0
0
0
0
0
0
0
0
0
0
0
0
1
0
0
0
0
0
0
0
0
0
0
0
0
0
0
0
0
1
0
0
0
0
0
0
0
0
0
0
1
0
0
0
0
0
0
0
0
0
0
0
0
0
0
0
0
0
0
0
0
0
0
0
0
0
0
0
0
0
0
0
0
0
0
0
0
0
0
0
0
0
0
0
0
0
0
0
0
0
0
0
0
0
0
0
0
0
0
0
0
0
1
0
0
0
0
0
0
0
0
0
0
0
0
0
0
0
0
0
0
0
0
0
0
0
0
0
0
0
1
0
1
1
0
0
0
0
0
0
0
0
0
0
0
0
0
1
0
1
0
0
0
0
1
0
0
0
0
0
0
0
0
1
1
0
0
0
0
0
1
0
0
0
0
0
0
0
0
1
0
0
0
0
0
0
0
0
0
0
0
0
0
0
0
0
0
0
0
0
0
0
0
0
0
0
0
0
0
0
0
0
1
0
0
0
0
0
0
0
0
0
0
0
0
0
0
0
0
0
0
0
0
0
0
0
0
0
0
0
0
0
0
0
0
0
0
0
0
0
0
0
0
0
0
0
0
0
0
0
1
0
0
0
0
0
0
0
0
0
0
0
0
0
0
0
0
0
0
0
0
0
0
0
0
0
0
0
0
0
0
0
0
0
0
0
0
0
0
0
0
0
0
0
0
0
0
0
0
0
0
1
0
0
0
0
0
0
0
0
0
0
0
0
0
0
0
0
0
0
0
0
0
0
0
0
0
0
0
0
0
0
0
0
0
0
0
0
0
0
0
0
0
0
0
0
0
0
0
0
0
0
0
0
0
0
0
0
0
1
0
0
0
0
0
0
0
0
0
0
0
0
0
0
0
0
0
0
0
0
0
0
0
0
0
0
0
0
0
0
0
0
0
0
0
0
0
0
0
0
0
0
0
0
0
0
0
0
0
0
0
0
0
0
0
0
0
0
0
0
0
0
0
0
0
0
0
0
0
0
0
0
0
0
0
0
0
0
0
0
0
0
0
0
0
0
0
0
0
0
0
0
0
0
0
0
0
0
0
0
0
0
0
0
0
0
0
0
0
0
0
0
0
0
0
0
0
0
0
0
0
0
0
0
0
0
0
0
0
0
0
0
1
0
0
0
0
0
0
0
0
0
0
0
0
0
0
0
0
0
0
0
1
0
0
0
0
0
0
0
0
0
0
0
0
0
0
0
0
0
0
0
0
0
0
0
0
0
0
0
0
0
0
0
0
0
0
0
0
0
0
0
0
0
0
0
0
0
0
0
0
0
0
0
0
0
1
0
0
0
0
0
0
0
0
0
0
0
0
0
0
0
0
0
0
0
0
0
0
0
1
0
0
0
0
0
0
0
0
0
0
0
0
0
0
0
0
0
0
0
1
0
0
0
1
0
0
0
0
0
0
0
0
0
0
0
0
0
0
0
0
0
0
0
0
0
0
0
0
0
1
0
0
0
0
0
0
0
1
0
0
0
0
0
0
0
0
0
0
0
0
0
0
0
0
0
0
0
0
0
0
0
0
0
0
1
0
0
0
0
0
0
0
1
0
0
0
0
0
0
1
0
0
0
0
0
0
0
0
0
0
0
0
0
0
0
0
0
0
0
0
0
0
0
0
0
0
0
0
0
0
0
0
0
0
0
0
0
0
1
0
0
0
0
0
1
0
0
0
0
0
0
0
1
0
0
0
0
0
0
0
0
0
0
0
0
0
1
0
0
0
0
0
0
0
0
0
0
0
0
0
0
0
0
0
0
0
0
0
0
0
0
0
0
0
0
0
0
0
0
0
0
0
0
0
0
0
0
0
0
0
0
0
0
0
0
0
0
0
0
0
1
0
0
0
0
0
0
0
0
0
0
0
0
0
0
0
0
0
0
0
1
0
0
0
0
0
0
0
0
0
1
0
0
0
0
0
0
0
0
0
0
0
0
0
0
0
0
0
0
0
0
0
0
0
0
0
0
0
0
0
1
0
1
0
0
0
0
0
0
0
0
0
0
0
0
0
0
0
0
0
0
0
0
0
0
0
0
0
0
0
1
0
0
0
1
0
0
0
0
0
0
0
0
0
0
0
0
0
0
0
0
0
0
0
0
0
0
0
0
0
0
0
0
1
0
0
0
0
0
0
0
0
0
0
0
0
0
0
0
0
0
0
0
0
0
0
0
0
0
1
0
0
0
0
0
0
0
0
0
0
0
0
0
0
0
0
0
0
0
0
0
0
0
1
0
0
0
0
0
0
1
0
0
0
0
0
0
0
0
0
0
0
1
0
0
0
0
0
0
0
0
0
0
0
0
0
0
0
0
0
0
0
0
1
0
0
0
0
0
0
0
0
0
0
0
1
0
0
0
0
0
0
0
0
0
0
0
0
0
0
0
0
0
0
0
0
0
1
0
0
0
0
0
0
0
0
0
1
1
0
1
0
1
0
0
0
0
0
0
0
0
0
0
0
1
0
0
0
0
0
1
1
0
0
0
0
0
0
1
0
0
0
0
0
1
1
1
0
0
0
0
0
0
0
0
0
0
0
0
1
1
0
0
1
0
0
0
0
0
1
0
0
0
1
0
1
0
0
0
0
0
0
0
1
0
0
0
0
0
0
0
1
0
0
1
0
0
0
0
0
0
0
0
0
0
0
0
0
0
0
1
0
0
0
0
0
0
0
0
0
0
0
0
0
0
0
0
0
0
0
0
0
0
0
0
0
0
0
0
0
0
0
0
0
0
0
0
1
0
0
0
0
0
0
1
0
0
0
1
0
0
0
0
0
0
0
0
0
0
0
1
0
0
0
0
0
0
0
0
0
0
0
0
0
0
0
0
0
0
0
0
0
0
0
0
0
0
0
0
0
0
0
0
0
0
0
0
0
0
0
0
1
1
0
0
0
0
0
0
0
0
0
0
0
0
0
1
0
0
0
0
0
0
0
0
0
0
0
0
0
0
0
0
0
0
0
0
0
0
0
0
0
0
0
0
0
0
0
0
0
0
0
0
0
0
0
0
0
0
0
0
0
0
0
0
0
0
0
0
0
0
0
0
0
0
0
0
0
0
0
0
0
0
0
0
0
0
0
0
1
1
0
0
0
0
0
0
0
0
1
0
0
0
0
0
0
0
0
0
0
0
0
0
0
0
0
0
0
0
0
0
0
0
1
0
0
0
0
0
0
0
0
0
0
0
0
0
0
0
0
1
0
0
0
0
0
0
0
0
0
0
0
0
0
0
0
0
0
0
0
0
0
0
0
0
0
0
0
0
0
0
0
0
0
0
0
0
0
0
0
0
0
0
0
0
0
0
0
0
0
0
0
0
0
0
0
0
0
0
0
0
0
0
0
0
0
0
0
0
0
0
0
0
0
0
0
0
0
0
0
0
0
0
0
0
0
0
0
0
0
0
1
1
0
0
0
0
0
1
0
0
0
0
0
0
0
0
0
0
0
0
1
0
0
0
0
0
0
0
0
0
0
0
0
0
0
0
0
0
0
0
0
0
0
0
0
0
0
0
0
0
0
0
0
0
0
0
0
0
0
0
0
0
0
0
0
0
0
0
0
0
0
0
0
0
1
0
1
0
0
0
0
0
0
0
0
0
0
0
0
0
0
0
0
0
0
1
0
0
0
0
0
0
0
0
0
0
0
0
0
0
0
0
0
0
0
0
0
0
0
0
0
0
0
0
0
0
0
0
0
0
0
0
0
0
0
0
0
0
0
0
0
0
0
0
0
0
0
0
0
0
0
0
0
0
0
0
0
0
0
0
0
0
0
0
0
0
1
0
0
0
0
0
0
0
0
0
0
1
0
0
0
0
0
0
0
0
0
0
0
0
0
0
0
0
0
0
0
0
0
0
0
0
0
0
0
0
0
0
0
0
0
0
0
0
0
1
0
0
0
0
0
0
0
0
0
0
0
0
0
0
0
0
0
0
0
0
0
0
0
0
0
0
0
0
0
0
0
0
0
0
0
0
0
0
0
0
0
0
0
0
0
0
0
0
0
0
0
0
0
0
0
0
0
0
0
0
0
0
0
0
0
0
0
0
0
0
0
0
0
0
0
0
0
0
0
0
0
1
0
0
0
0
0
0
0
0
0
0
0
0
0
0
0
0
0
0
0
0
0
0
0
0
0
0
0
0
0
0
0
0
0
0
0
0
0
0
0
0
0
0
0
0
0
0
0
0
0
0
0
0
0
0
0
0
0
0
0
0
0
0
0
0
0
0
0
0
0
0
0
0
0
0
0
0
0
0
0
0
0
0
0
0
0
0
0
0
0
0
0
0
0
0
0
0
0
0
0
0
0
0
0
0
0
0
0
0
0
0
0
0
0
0
0
0
0
0
0
0
0
0
0
1
0
0
0
0
0
0
0
0
0
0
0
0
0
0
0
0
0
0
0
0
0
0
0
0
0
0
0
0
0
0
0
0
0
0
0
0
0
0
0
0
0
0
0
0
0
0
0
0
0
0
0
0
0
0
0
0
0
0
0
0
0
0
0
0
0
0
0
0
0
0
0
0
0
0
0
0
0
0
0
0
0
1
0
0
0
0
0
0
0
1
0
0
0
0
0
0
0
0
0
0
0
0
0
0
0
0
0
0
0
0
0
0
0
0
0
0
0
0
0
0
0
0
0
0
0
0
0
1
0
0
0
0
0
0
0
0
0
0
0
0
0
0
0
0
0
0
0
0
0
1
0
0
0
0
0
0
0
0
0
0
0
0
1
1
0
0
0
0
0
0
0
0
0
0
0
0
0
0
0
1
1
0
1
0
0
0
0
0
0
0
0
0
1
0
0
0
0
0
0
1
0
0
0
0
0
0
0
0
0
0
1
0
0
0
0
1
0
1
0
0
0
0
0
0
0
1
0
0
0
1
0
0
0
1
0
1
1
0
0
1
1
0
0
0
1
0
0
0
1
0
0
0
0
0
0
0
0
0
1
0
0
0
0
0
0
1
0
0
0
0
0
0
0
0
0
0
0
0
0
0
0
0
0
0
0
0
0
0
0
0
0
0
0
1
0
0
1
0
0
0
0
0
0
0
0
0
0
0
0
0
0
0
0
0
0
1
0
0
1
0
0
0
0
0
0
0
0
0
0
0
1
0
0
1
0
0
0
0
0
0
0
0
0
0
0
1
1
0
0
0
0
0
0
0
0
0
0
0
0
1
0
0
0
0
0
0
0
0
0
0
0
0
0
0
0
0
0
1
0
0
0
0
0
0
0
0
0
0
0
0
0
0
0
0
0
1
0
0
0
0
0
0
0
0
0
0
0
0
0
0
0
0
0
0
0
0
0
0
0
0
0
0
0
0
0
0
0
0
0
0
0
0
0
0
0
0
1
0
0
0
0
0
0
0
0
0
0
0
0
0
0
0
0
0
0
0
0
0
0
0
0
0
0
0
0
0
0
0
0
0
0
0
0
0
0
0
0
0
0
0
0
0
1
0
0
0
0
0
0
0
0
0
0
0
0
0
0
0
0
0
0
0
0
0
0
0
0
0
0
0
0
0
0
0
0
0
0
0
0
0
0
0
0
0
0
0
0
0
0
0
1
0
0
0
0
0
0
0
0
0
0
1
0
0
0
0
0
0
0
0
0
0
0
0
0
0
0
1
0
0
1
0
0
0
0
0
0
0
0
0
0
0
0
0
0
0
0
0
0
0
0
0
0
0
1
0
0
0
0
0
0
0
0
0
0
0
0
0
0
0
0
0
0
0
0
0
0
0
0
0
0
0
0
0
0
0
0
0
0
0
1
0
0
0
0
0
0
0
0
0
0
0
0
0
0
0
0
0
0
0
0
0
0
0
0
0
0
0
0
0
0
0
0
0
0
0
0
0
0
0
0
0
0
0
0
0
0
0
0
0
0
0
0
0
0
0
0
0
0
0
0
0
0
0
0
0
0
0
0
0
0
0
0
0
0
0
0
1
0
0
0
0
0
0
0
0
0
0
0
0
0
0
0
0
0
0
0
0
0
0
0
0
0
0
0
0
0
0
0
0
0
0
0
0
0
0
0
1
0
0
0
0
0
0
0
0
0
0
0
0
1
1
0
0
0
0
0
0
0
0
0
0
0
0
0
0
0
0
0
0
0
0
0
0
0
0
0
0
0
0
0
0
0
0
0
0
0
0
0
0
0
0
0
0
0
0
0
0
0
0
0
0
0
0
0
0
0
0
0
0
0
0
0
0
0
0
0
0
0
0
0
0
0
0
0
0
0
0
0
0
0
0
0
0
0
0
0
0
0
0
0
0
0
0
0
0
0
0
0
0
0
0
0
1
0
1
0
0
0
0
0
0
0
1
1
1
1
0
0
0
0
0
0
0
0
0
0
0
0
0
0
0
0
0
0
0
0
0
0
0
0
0
0
0
0
1
1
0
0
0
0
0
0
0
0
0
0
0
0
0
0
0
0
0
0
1
0
0
0
0
0
0
0
1
1
0
1
1
0
0
1
0
0
0
0
0
0
0
1
0
1
0
0
0
0
0
0
0
0
0
0
0
0
0
0
0
0
0
0
0
0
0
0
0
0
0
0
0
1
1
0
0
0
1
1
0
0
0
0
1
0
0
1
0
1
0
0
0
0
0
1
0
0
0
1
0
0
0
0
0
0
0
0
0
0
0
0
0
0
0
0
0
0
0
0
0
0
0
0
0
0
0
1
0
0
0
0
0
0
1
0
0
0
0
0
0
0
0
0
0
0
0
0
0
0
0
0
0
0
0
0
0
0
0
0
0
0
0
0
1
0
1
0
0
0
0
0
0
0
1
0
0
0
0
0
0
0
0
0
0
0
1
0
0
0
0
0
0
0
0
0
1
0
0
0
0
0
0
0
1
0
0
0
0
0
0
0
1
0
0
0
0
0
0
0
0
0
0
0
0
0
0
0
0
0
0
0
1
0
1
0
0
0
0
0
1
0
0
0
0
0
0
0
0
0
0
0
0
0
0
0
0
0
0
0
0
0
0
0
0
0
1
0
1
0
0
0
0
0
0
0
0
0
1
0
0
0
0
0
1
0
0
0
0
0
0
0
0
0
0
0
0
0
0
0
1
0
0
0
0
0
0
0
0
1
0
0
0
0
0
0
0
0
0
0
0
0
0
0
0
0
0
0
0
0
0
0
0
0
0
0
0
0
0
0
1
0
0
0
0
0
0
0
0
0
0
0
0
0
0
0
0
1
0
0
0
0
0
0
0
0
1
0
0
0
0
0
0
0
0
0
1
0
0
0
0
0
1
0
0
0
0
0
0
0
0
0
0
0
0
0
0
0
0
0
0
0
1
0
0
0
0
0
0
1
0
0
0
0
0
0
0
0
1
0
0
0
0
0
0
0
0
0
0
0
0
0
0
1
0
0
1
0
0
0
1
0
0
0
0
0
0
0
0
0
0
0
0
0
0
0
0
1
0
0
0
0
0
0
0
0
0
0
1
0
1
0
0
0
0
0
0
1
0
0
0
0
0
0
0
0
0
0
0
0
0
0
0
0
0
0
0
0
0
0
0
0
0
0
0
1
1
0
0
0
0
0
0
1
0
0
0
0
0
0
0
0
0
0
0
0
0
1
0
0
0
0
0
0
0
1
0
0
0
0
0
0
0
0
0
0
0
0
0
0
0
0
0
0
0
0
0
0
0
0
0
0
0
1
0
0
0
0
0
0
0
0
0
0
1
0
0
1
0
0
0
0
0
0
0
0
0
0
0
0
0
0
0
0
0
0
0
0
0
0
0
0
0
0
0
0
0
1
0
0
0
0
0
0
0
1
0
0
0
0
0
0
0
1
0
0
0
0
1
0
0
0
0
0
0
0
0
0
0
0
1
0
1
0
0
0
1
0
				</DataArray>
				<DataArray type="Float64" Name="h" NumberOfComponents="1" Format="ascii">
1.1687602870
1.1687764238
1.1647768907
1.1679258249
1.1643666978
1.1654155210
1.1664044536
1.1698190484
1.1675745372
1.1724383457
1.1690797431
1.1658658468
1.1703192289
1.1703446859
1.1697881204
1.1730151421
1.1669789856
1.1721244071
1.1691636224
1.1693631434
1.1634065818
1.1703163189
1.1667964475
1.1630283332
1.1681029982
1.1743657032
1.1686407173
1.1601919267
1.1646774526
1.1713561349
1.1704144340
1.1662263723
1.1709511021
1.1646407998
1.1583621950
1.1624557992
1.1608592947
1.1664390498
1.1601865610
1.1625226818
1.1640456476
1.1592795502
1.1680126752
1.1642023036
1.1618703760
1.1614044390
1.1657960405
1.1572391650
1.1462978898
1.1474686874
1.1621631714
1.1619865484
1.1635643641
1.1538180594
1.1597846917
1.1677161820
1.1608377179
1.1546557712
1.1537233471
1.1544270454
1.1514674033
1.1525038191
1.1470100212
1.1613803988
1.1629402036
1.1573612397
1.1486775880
1.1482551890
1.1525310787
1.1536244927
1.1534003726
1.1592495413
1.1661607691
1.1524744018
1.1530915300
1.1587882303
1.1545256440
1.1514006841
1.1556782853
1.1593281542
1.1494930743
1.1559419750
1.1431077534
1.1495168340
1.1612796345
1.1568772904
1.1487335378
1.1507564281
1.1506529642
1.1439339354
1.1480099959
1.1582607921
1.1503335447
1.1448973044
1.1550943948
1.1564738986
1.1524893609
1.1605692081
1.1589154045
1.1486238569
1.1438230498
1.1496015504
1.1533799548
1.1558652164
1.1749140073
1.1499595438
1.1543231971
1.1453901060
1.1515919427
1.1547326804
1.1457629559
1.1447391264
1.1490640870
1.1475235023
1.1517481091
1.1449866833
1.1530753999
1.1737659010
1.1457005579
1.1502720327
1.1745043974
1.1520939209
1.1562226646
1.1757119820
1.1486144480
1.1452243052
1.1514984816
1.1763949352
1.1457028791
1.1446179785
1.1463127700
1.1539147345
1.1500258250
1.1450937048
1.1735414490
1.1463906575
1.1759163038
1.1445124390
1.1479101817
1.1727195380
1.1770722475
1.1746504880
1.1454890604
1.1706946691
1.1557549177
1.1471124018
1.1744550159
1.1428065830
1.1754328628
1.1423526842
1.1766128901
1.1444441621
1.1439110693
1.1426365931
1.1486509989
1.1438141893
1.1432704511
1.1761397705
1.1426087351
1.1785176056
1.1720302614
1.1430794825
1.1754006927
1.1775439563
1.1763304044
1.1434373233
1.1683949937
1.1739657744
1.1772663942
1.1433591904
1.1435524835
1.1783065570
1.1429061842
1.1766857677
1.1674834538
1.1424616147
1.1698701866
1.1419808434
1.1425253729
1.1778591600
1.1438616541
1.1649759167
1.1787912902
1.1551315782
1.1785659984
1.1792576270
1.1659584215
1.1424448373
1.1777973342
1.1795018333
1.1624035644
1.1425305239
1.1793643077
1.1634509407
1.1425359955
1.1424580086
1.1780034581
1.1597836116
1.1608781960
1.1417420450
1.1795936550
1.1536908810
1.1793800242
1.1422020219
1.1571340840
1.1795597528
1.1744587598
1.1771458659
1.1582366431
1.1705202013
1.1630646066
1.1791632790
1.1787351271
1.1799268135
1.1759482459
1.1603706190
1.1726238823
1.1789929959
1.1656784846
1.1794409984
1.1556113574
1.1442485362
1.1681797394
1.1463354126
1.1526477235
1.1414732927
1.1426273890
1.1491920794
1.1545365136
1.1433679413
1.1418633500
1.1452431773
1.1508831067
1.1414930426
1.1416617682
1.1476036196
1.1619856976
1.1744460534
1.1797539882
1.1703578573
1.1626222817
1.1772956498
1.1796991411
1.1696838735
1.1768235310
1.1738871039
1.1795358989
1.1646626190
1.1760334361
1.1791372446
1.1725397427
1.1653429726
1.1788682412
1.1592668073
1.1598449232
1.1800929837
1.1719092349
1.1755286355
1.1799269522
1.1454259544
1.1679403619
1.1520626904
1.1486952324
1.1458638872
1.1512760578
1.1415712441
1.1410390068
1.1550051529
1.1412935694
1.1437464012
1.1421672126
1.1672485918
1.1434506960
1.1479334903
1.1465788079
1.1539607654
1.1503168448
1.1471845673
1.1447356727
1.1530760495
1.1426583559
1.1410459670
1.1413224049
1.1412275332
1.1428860837
1.1443799644
1.1495564189
1.1744474292
1.1796861381
1.1798449188
1.1738509927
1.1615279885
1.1774411405
1.1769917047
1.1701942189
1.1621736544
1.1694968823
1.1761092467
1.1792859834
1.1800927312
1.1802530789
1.1755855205
1.1642929306
1.1593424533
1.1587472431
1.1724649906
1.1649807009
1.1718052820
1.1790214611
1.1515111765
1.1474730751
1.1481627875
1.1408199781
1.1544310444
1.1416881243
1.1449043849
1.1676790087
1.1429558110
1.1405736585
1.1669719269
1.1453845464
1.1506834174
1.1432469858
1.1411201537
1.1497608507
1.1490189265
1.1466980159
1.1408668195
1.1460969212
1.1438655650
1.1421838709
1.1407637718
1.1405711781
1.1534395181
1.1442387292
1.1524768880
1.1423950345
1.1738385392
1.1390955667
1.1700431042
1.1617731373
1.1693098488
1.1798471810
1.1610921195
1.1775897597
1.1744739542
1.1771296968
1.1799990126
1.1396629884
1.1490683474
1.1589172329
1.1430549395
1.1756497274
1.1791979875
1.1388467279
1.1724096467
1.1471480310
1.1646420192
1.1717116309
1.1414322143
1.1410569601
1.1383025125
1.1802524133
1.1639234589
1.1582794570
1.1762033733
1.1534041533
1.1504555058
1.1456875329
1.1804134947
1.1440190636
1.1398792001
1.1794521927
1.1400874527
1.1444036919
1.1448987508
1.1406441597
1.1809806342
1.1412011167
1.1510343321
1.1539370941
1.1424553610
1.1403252389
1.1674286928
1.1427533154
1.1666896209
1.1501202387
1.1469628394
1.1476499168
1.1722536408
1.1400748695
1.1530206556
1.1456044700
1.1581427946
1.1402815390
1.1437499384
1.1816168082
1.1787091266
1.1769693659
1.1636960523
1.1492535506
1.1416951074
1.1666023615
1.1433573481
1.1608558427
1.1403854906
1.1419033404
1.1519324685
1.1484702724
1.1694892159
1.1462002124
1.1511016867
1.1424041128
1.1490357846
1.1738574901
1.1391986712
1.1407337692
1.1691480712
1.1419769293
1.1492725131
1.1535809769
1.1559877946
1.1772810040
1.1402813222
1.1384478824
1.1446635913
1.1393881200
1.1800225250
1.1406697229
1.1607322195
1.1472710439
1.1381735250
1.1427345966
1.1392413303
1.1454819731
1.1442850880
1.1392576566
1.1414956401
1.1396689218
1.1538564268
1.1491527076
1.1438494739
1.1757426127
1.1408608545
1.1507824976
1.1716437673
1.1475539985
1.1473065402
1.1434588662
1.1403579231
1.1425233310
1.1392936904
1.1804125151
1.1512091621
1.1636032638
1.1559870424
1.1374946362
1.1388714062
1.1454188293
1.1380370875
1.1793886572
1.1579172976
1.1739304292
1.1398141127
1.1664394513
1.1439155592
1.1460246074
1.1496331659
1.1619721685
1.1774779319
1.1401558634
1.1690474426
1.1419626081
1.1633837020
1.1535766869
1.1464626042
1.1374091061
1.1706877707
1.1802161532
1.1811343673
1.1807436960
1.1577106499
1.1758885759
1.1398891259
1.1389421067
1.1383290569
1.1412055687
1.1799590958
1.1451139618
1.1794582473
1.1495610688
1.1514933187
1.1369912781
1.1796050758
1.1816164542
1.1747842312
1.1716302707
1.1375902147
1.1428658092
1.1814706761
1.1424668941
1.1399865714
1.1734391479
1.1769693062
1.1636956925
1.1662658836
1.1479648997
1.1805782296
1.1550826489
1.1476319668
1.1799593884
1.1605014942
1.1439130078
1.1690480508
1.1541266827
1.1802149168
1.1424198736
1.1513772670
1.1803743621
1.1699165752
1.1605013030
1.1471710456
1.1493549010
1.1385593714
1.1746941735
1.1401274600
1.1832302095
1.1454739551
1.1565833092
1.1613341532
1.1413518200
1.1739307686
1.1438734386
1.1780165613
1.1774770930
1.1645040954
1.1796036874
1.1716308897
1.1805771376
1.1565829547
1.1577100820
1.1674928492
1.1783747401
1.1806431976
1.1733292889
1.1724637421
1.1822045247
1.1633838516
1.1704627712
1.1803547697
1.1377760924
1.1759988049
1.1765511905
1.1587306230
1.1798788981
1.1560322456
1.1585125521
1.1818030952
1.1395303110
1.1383725439
1.1642432333
1.1825092256
1.1388701315
1.1758883688
1.1615660930
1.1414906697
1.1662662999
1.1460224887
1.1457399974
1.1392961802
1.1671407686
1.1474844647
1.1411040309
1.1456029459
1.1492698333
1.1806309096
1.1533931938
1.1518318324
1.1439123551
1.1642748327
1.1726447008
1.1434556682
1.1424663462
1.1846158816
1.1496885323
1.1783694774
1.1396689230
1.1423994726
1.1475515810
1.1859515182
1.1393900317
1.1659384153
1.1759209247
1.1617708057
1.1838840064
1.1512067319
1.1613796003
1.1808389941
1.1371714240
1.1677902227
1.1592025765
1.1671920343
1.1377802840
1.1749550197
1.1446613058
1.1799917106
1.1713564726
1.1386442321
1.1407293428
1.1885730244
1.1744520335
1.1794567177
1.1395378584
1.1874667795
1.1518316138
1.1768742221
1.1458270668
1.1780159421
1.1671409434
1.1613338771
1.1746942960
1.1376817617
1.1534914883
1.1801889753
1.1803734044
1.1700210606
1.1907272542
1.1384595662
1.1798778707
1.1838133539
1.1713564250
1.1886131564
1.1810330442
1.1585119234
1.1699168492
1.1642432315
1.1765509873
1.1406240672
1.1376915031
1.1425373949
1.1476884052
1.1806422791
1.1747479021
1.1681556775
1.1634182723
1.1370653325
1.1406300442
1.1587304716
1.1773566537
1.1379518078
1.1939548694
1.1719088070
1.1807302574
1.1781498633
1.1964588415
1.1663242684
1.1605690392
1.1724640170
1.1419872530
1.1743679598
1.1809557857
1.1793935658
1.1441071251
1.1394422364
1.1371499012
1.1435122419
1.1927312475
1.1691907682
1.1802331066
1.1764697106
1.1370683313
1.1367574633
1.1645039119
1.1779967646
1.1679103526
1.1863290378
1.1406379651
1.1878971847
1.1851434768
1.1366826022
1.1373604259
1.1712153731
1.1746808037
1.1399393033
1.1781081408
1.1806515302
1.1910572557
1.1384209126
1.1369596419
1.1376100449
1.1806500770
1.1828186544
1.1922420490
1.1893691652
1.1871574352
1.1388672340
1.1379958755
1.1411329769
1.1399243682
1.1969646491
1.1373467787
1.1366981778
1.1912350622
1.1376921656
1.1388837875
1.1885728304
1.1366922375
1.1759987268
1.1370751533
1.1829218015
1.1816523268
1.1368293620
1.1874665769
1.1369513194
1.1367005205
1.1825089882
1.1368414197
1.1838723900
1.1844360859
1.1374650157
1.1368628214
1.1819555465
1.1672796314
1.1666414541
1.1666554062
1.1672969741
1.1669873178
1.1658616313
1.1690726567
1.1688308454
1.1650964319
1.1654081054
1.1643750827
1.1651089836
1.1675842127
1.1697769418
1.1663958663
1.1713107058
1.1688403984
1.1669937759
1.1710557186
1.1721180861
1.1679321454
1.1647822502
1.1691458135
1.1713509979
1.1724370136
1.1657974777
1.1698284502
1.1743643463
1.1680983960
1.1724439282
1.1711702069
1.1703326499
1.1637986092
1.1722183707
1.1682655114
1.1713171032
1.1704102630
1.1710664966
1.1646392811
1.1709369888
1.1662030068
1.1700752289
1.1625179524
1.1614246845
1.1669813058
1.1730218691
1.1679907561
1.1601645100
1.1658004708
1.1724432422
1.1640303877
1.1703501106
1.1693662675
1.1638026856
1.1668215350
1.1566982821
1.1703308536
1.1612664296
1.1711831395
1.1634090303
1.1682881744
1.1689279451
1.1585380277
1.1572375112
1.1722268618
1.1618628851
1.1621615058
1.1657673420
1.1602126089
1.1630349626
1.1646972222
1.1608180638
1.1628074514
1.1686613481
1.1596962792
1.1732395399
1.1614442597
1.1587838465
1.1583011661
1.1700905890
1.1635402308
1.1566995704
1.1464903285
1.1480566749
1.1689488276
1.1612698913
1.1602570851
1.1585512976
1.1624667441
1.1629127500
1.1664650363
1.1575233130
1.1583644354
1.1470173865
1.1482610072
1.1581682008
1.1608614384
1.1613689370
1.1587895531
1.1554640291
1.1548108855
1.1642287672
1.1524764976
1.1548369516
1.1592446720
1.1661379279
1.1535629887
1.1636568146
1.1636208758
1.1596996349
1.1515253273
1.1583029831
1.1592900614
1.1545253629
1.1534008121
1.1521490007
1.1530925489
1.1628300769
1.1654368599
1.1525310767
1.1595751877
1.1732448325
1.1536234865
1.1602622930
1.1575257374
1.1576771064
1.1581787260
1.1493657562
1.1567701380
1.1476666485
1.1462898410
1.1620031821
1.1480511266
1.1614269345
1.1559355366
1.1495214674
1.1566801640
1.1464817018
1.1474616115
1.1514675223
1.1525048891
1.1654621282
1.1505353188
1.1521456332
1.1537231118
1.1553646167
1.1548372563
1.1602531282
1.1652136176
1.1554646692
1.1595769543
1.1572659558
1.1597919342
1.1525834603
1.1535633125
1.1515262322
1.1677362156
1.1555656899
1.1527552270
1.1636762788
1.1538178592
1.1548108795
1.1544264800
1.1582499487
1.1546563365
1.1636454133
1.1503345382
1.1493615100
1.1558638083
1.1588972672
1.1566833248
1.1627198780
1.1567714981
1.1496011123
1.1488271697
1.1496141508
1.1507372478
1.1573742398
1.1438285645
1.1486721604
1.1569398366
1.1605533418
1.1504705709
1.1564630406
1.1562600278
1.1476590876
1.1486249622
1.1499632978
1.1576908777
1.1430564583
1.1555702058
1.1515934328
1.1447473529
1.1505352930
1.1527539208
1.1490660925
1.1572680741
1.1587969036
1.1459665987
1.1553648952
1.1513996342
1.1652333938
1.1477828768
1.1602623234
1.1457718868
1.1547258046
1.1525829794
1.1496128753
1.1430540854
1.1541765433
1.1504712823
1.1568857611
1.1520920260
1.1509240610
1.1569413627
1.1746490695
1.1562614432
1.1507359292
1.1612930546
1.1593426916
1.1487330287
1.1431044003
1.1494929083
1.1530727108
1.1556790830
1.1488215094
1.1745028948
1.1507542276
1.1627346564
1.1477809960
1.1539098021
1.1468723732
1.1751919523
1.1452306046
1.1493764917
1.1473118679
1.1506495878
1.1551003748
1.1448879939
1.1447658242
1.1439273225
1.1480071983
1.1458713333
1.1546442381
1.1486188048
1.1515003794
1.1459566487
1.1446191456
1.1533828989
1.1442499449
1.1471244563
1.1541786010
1.1746503396
1.1509192288
1.1468079483
1.1735391097
1.1463932215
1.1500319508
1.1749151620
1.1524897657
1.1557487299
1.1478974433
1.1746489605
1.1488635264
1.1751919927
1.1447638914
1.1475183175
1.1453826885
1.1749655339
1.1546454625
1.1473085623
1.1517476113
1.1754321815
1.1468649254
1.1454899198
1.1763829555
1.1449856430
1.1493736844
1.1471139917
1.1458666353
1.1543267124
1.1747413552
1.1576977058
1.1483262814
1.1440461478
1.1442471327
1.1468014208
1.1769391636
1.1449603594
1.1443765032
1.1478492819
1.1502666502
1.1471161512
1.1444446722
1.1737682772
1.1471220419
1.1456970724
1.1726708236
1.1766163578
1.1439110754
1.1486509311
1.1749659817
1.1763837138
1.1739638808
1.1763307915
1.1488585079
1.1428989826
1.1747424433
1.1768893205
1.1423201206
1.1495032118
1.1478923751
1.1757131068
1.1457023806
1.1720225780
1.1755047077
1.1562277291
1.1463110269
1.1726211976
1.1754023967
1.1463110791
1.1430789683
1.1763953044
1.1426082551
1.1478486637
1.1759151821
1.1450931105
1.1435844137
1.1499716586
1.1443722636
1.1443686457
1.1445121577
1.1429060327
1.1716953326
1.1764315668
1.1479098665
1.1726737169
1.1483203251
1.1769358665
1.1440458579
1.1577035581
1.1471210978
1.1433588414
1.1463952545
1.1449600597
1.1435527404
1.1766873039
1.1423533811
1.1787914902
1.1514118152
1.1755052744
1.1768892146
1.1435044618
1.1431298687
1.1426301137
1.1707076314
1.1428071248
1.1744561633
1.1778601831
1.1423211337
1.1726238762
1.1495001409
1.1786305337
1.1770717930
1.1438619482
1.1463104512
1.1698579973
1.1470491621
1.1727268177
1.1428992786
1.1779887318
1.1777969859
1.1438139574
1.1432704671
1.1764287995
1.1518597646
1.1435846793
1.1738349747
1.1716977492
1.1499685618
1.1785653286
1.1443680898
1.1426362644
1.1761384778
1.1463946241
1.1659430632
1.1532429344
1.1425358170
1.1684112008
1.1779885449
1.1435030775
1.1424578147
1.1786298733
1.1426304044
1.1470486837
1.1428263075
1.1787162797
1.1431301045
1.1514136087
1.1776202102
1.1425304473
1.1456253066
1.1775430820
1.1434366406
1.1634395235
1.1420504823
1.1785175865
1.1536878202
1.1422388055
1.1783070653
1.1793795129
1.1674972197
1.1422014060
1.1518613975
1.1772670971
1.1795929966
1.1738366089
1.1608709815
1.1421611511
1.1425255249
1.1776538706
1.1787165107
1.1776202520
1.1791628437
1.1420517065
1.1428268918
1.1788624284
1.1424490980
1.1649876461
1.1456246459
1.1424616604
1.1532465845
1.1795916029
1.1796243302
1.1419820765
1.1787364662
1.1582319741
1.1624114850
1.1418620348
1.1422391541
1.1795024875
1.1421617086
1.1421120273
1.1419025051
1.1551353967
1.1792581644
1.1424452212
1.1556091822
1.1795366204
1.1738852359
1.1777932039
1.1768271254
1.1597882005
1.1796249615
1.1576576497
1.1792685950
1.1696755249
1.1781721915
1.1776519874
1.1619817487
1.1793646498
1.1797065682
1.1424488373
1.1780014124
1.1798509907
1.1755302805
1.1779424602
1.1592652203
1.1719033195
1.1788702237
1.1646562052
1.1795922237
1.1797535461
1.1788616217
1.1417389435
1.1565660323
1.1571361606
1.1421129474
1.1443910928
1.1672402578
1.1419033901
1.1465875322
1.1530743638
1.1413202384
1.1426630506
1.1420519544
1.1495569964
1.1550055855
1.1434591983
1.1417433156
1.1454371021
1.1512740994
1.1412913162
1.1420256143
1.1415701299
1.1479383809
1.1630708457
1.1738495526
1.1783252078
1.1794410227
1.1694918471
1.1615264400
1.1781693118
1.1576590520
1.1777905084
1.1793946685
1.1570900255
1.1769948824
1.1796872741
1.1792687337
1.1705295951
1.1771426266
1.1744601335
1.1795593511
1.1656873308
1.1755868412
1.1790238112
1.1797071122
1.1718013295
1.1642897211
1.1789914571
1.1603745123
1.1587474657
1.1781234973
1.1800076049
1.1726298728
1.1779391707
1.1759465010
1.1798513087
1.1452330085
1.1669673514
1.1560278341
1.1524776089
1.1490186511
1.1461037323
1.1508851553
1.1420244513
1.1416632925
1.1408645602
1.1545370620
1.1414944645
1.1416083471
1.1438772159
1.1421895712
1.1681901176
1.1417406210
1.1433605754
1.1475983369
1.1463272948
1.1544335079
1.1506827556
1.1474755726
1.1449148887
1.1526503080
1.1426234676
1.1420514381
1.1408171608
1.1565651938
1.1414755088
1.1411192265
1.1429654748
1.1415675366
1.1442386315
1.1491904074
1.1738375981
1.1784846628
1.1796983315
1.1793943954
1.1798485790
1.1744470996
1.1626255891
1.1565733833
1.1771321078
1.1570895694
1.1772924067
1.1693071383
1.1610916933
1.1703637234
1.1783221117
1.1756506349
1.1792003159
1.1800075936
1.1801628251
1.1760316836
1.1653477779
1.1582801879
1.1783035380
1.1598464286
1.1781201249
1.1717093188
1.1639220347
1.1725438383
1.1791352559
1.1519351777
1.1471806369
1.1484709990
1.1410482181
1.1539585961
1.1417011778
1.1447253143
1.1666873414
1.1428774442
1.1415658210
1.1411394306
1.1403831705
1.1555680246
1.1679462915
1.1456087926
1.1503180013
1.1433674865
1.1412287075
1.1501217616
1.1486948827
1.1469643535
1.1410414960
1.1560256458
1.1410884867
1.1458562873
1.1437355566
1.1421622212
1.1406432435
1.1403222811
1.1539401976
1.1444116453
1.1520627515
1.1424647197
1.1416069503
1.1391989950
1.1472731054
1.1561628981
1.1419799388
1.1744480388
1.1784817748
1.1389019508
1.1392473016
1.1691467411
1.1484303779
1.1607320878
1.1701974425
1.1424792184
1.1402841076
1.1386191668
1.1798438324
1.1621751919
1.1565722520
1.1772825496
1.1738569241
1.1774383649
1.1511032258
1.1527433238
1.1442873696
1.1800239528
1.1450724175
1.1405443296
1.1786583558
1.1396950133
1.1485560362
1.1579177286
1.1428466169
1.1761078173
1.1792839073
1.1387839996
1.1387642420
1.1716425434
1.1466451261
1.1636026524
1.1724673953
1.1416231145
1.1409621779
1.1385585992
1.1801624530
1.1649831821
1.1593426954
1.1784879347
1.1757431142
1.1783006568
1.1526599026
1.1511753015
1.1453502533
1.1803161889
1.1436894915
1.1398150243
1.1793905965
1.1702775866
1.1398868016
1.1552386047
1.1442298877
1.1612246706
1.1406563494
1.1451168063
1.1407645416
1.1811348238
1.1814794815
1.1773490253
1.1412110956
1.1794583855
1.1670184727
1.1514965504
1.1410864549
1.1534359674
1.1644884447
1.1423862664
1.1588522895
1.1405739427
1.1664384049
1.1428730797
1.1676821183
1.1497597649
1.1466955315
1.1727401799
1.1479669798
1.1734391763
1.1398112398
1.1535791311
1.1453788390
1.1592029343
1.1401551535
1.1439207206
1.1411376688
1.1812260061
1.1814401201
1.1795819699
1.1406018279
1.1780046030
1.1648558440
1.1496359612
1.1416827465
1.1555660733
1.1677903696
1.1432368169
1.1619724797
1.1405758685
1.1419701903
1.1515086404
1.1481620242
1.1706878557
1.1464644014
1.1504796147
1.1398878044
1.1422755388
1.1401708717
1.1513779591
1.1484291395
1.1471719551
1.1448898984
1.1744742817
1.1393079053
1.1420149769
1.1407173667
1.1393080508
1.1532090182
1.1700447030
1.1418253391
1.1488385768
1.1527425430
1.1468552590
1.1551141425
1.1485913252
1.1775877703
1.1402467627
1.1386195584
1.1444322167
1.1395318670
1.1418285823
1.1413534619
1.1395907400
1.1799978246
1.1527508747
1.1405419144
1.1617737430
1.1534030478
1.1535817910
1.1377768466
1.1383734225
1.1468527237
1.1438746804
1.1380374696
1.1424770803
1.1392459725
1.1384760563
1.1786560649
1.1561619355
1.1450706376
1.1440158380
1.1384475291
1.1490667716
1.1390931364
1.1414212254
1.1406717500
1.1397921953
1.1529537436
1.1504543397
1.1484549785
1.1433551958
1.1762024265
1.1389027853
1.1411820852
1.1401216133
1.1516289688
1.1724109035
1.1410537299
1.1472005777
1.1553065197
1.1553071362
1.1466308657
1.1784858563
1.1396612962
1.1388462723
1.1432788673
1.1401802641
1.1421973547
1.1395652258
1.1803155041
1.1506787839
1.1454833594
1.1414298573
1.1646431867
1.1551134050
1.1376823522
1.1388348391
1.1456856288
1.1449200640
1.1378659667
1.1436872671
1.1398129807
1.1380434438
1.1794503286
1.1589170532
1.1466432378
1.1430524721
1.1745459766
1.1400776541
1.1395387870
1.1377813100
1.1405996141
1.1674302006
1.1807433385
1.1437437157
1.1780045295
1.1474849052
1.1457373629
1.1492505364
1.1608553915
1.1371724703
1.1788574372
1.1814790685
1.1777703511
1.1402821927
1.1753374681
1.1699370428
1.1379528334
1.1418958508
1.1806391925
1.1433938773
1.1390621309
1.1702775491
1.1787089685
1.1616098336
1.1616094274
1.1643791706
1.1530175161
1.1461979351
1.1374403111
1.1694891225
1.1640908322
1.1801714371
1.1809800772
1.1533950260
1.1489207729
1.1812387118
1.1807456922
1.1586254787
1.1817194655
1.1424133513
1.1763403256
1.1400893056
1.1386452287
1.1381798951
1.1411960970
1.1799471267
1.1448949186
1.1795818371
1.1487719177
1.1510307525
1.1640905580
1.1370664671
1.1796442174
1.1814396624
1.1787060534
1.1406546466
1.1759209515
1.1723977356
1.1374626011
1.1427453715
1.1812383741
1.1419174684
1.1396743618
1.1722536479
1.1773489625
1.1648556038
1.1729681133
1.1672336164
1.1552376943
1.1476476940
1.1372008456
1.1727401128
1.1804735900
1.1812254766
1.1788759919
1.1559119243
1.1468987700
1.1806221105
1.1806394639
1.1614763167
1.1433424717
1.1623680264
1.1788558821
1.1699377616
1.1532086251
1.1801703065
1.1420136664
1.1538558994
1.1559109419
1.1709781814
1.1505753035
1.1813229251
1.1804410169
1.1767055565
1.1384172429
1.1690499792
1.1465763515
1.1822008525
1.1614763688
1.1682728554
1.1465753230
1.1453474967
1.1485906942
1.1788236754
1.1402496503
1.1387856245
1.1541269903
1.1526588691
1.1384163238
1.1740315622
1.1740899297
1.1398863277
1.1409591727
1.1568384524
1.1825781208
1.1504810989
1.1791102073
1.1448889652
1.1440174710
1.1555906694
1.1588279410
1.1392424120
1.1558543892
1.1840188125
1.1390968130
1.1385633099
1.1511741995
1.1411041297
1.1376873928
1.1604421655
1.1815946554
1.1411022940
1.1394220970
1.1745461728
1.1648175896
1.1434641853
1.1777535192
1.1777691588
1.1398767687
1.1656994315
1.1796427569
1.1723983449
1.1558646809
1.1804727113
1.1433540480
1.1555902259
1.1454747316
1.1586249868
1.1687578529
1.1491519287
1.1797372990
1.1807529842
1.1746808712
1.1717078970
1.1827176570
1.1643795882
1.1717793036
1.1490369957
1.1454178392
1.1507819754
1.1816524545
1.1383026888
1.1401287316
1.1380368407
1.1773689428
1.1761189434
1.1408594178
1.1597389074
1.1830870521
1.1798723062
1.1466300847
1.1376882501
1.1558649472
1.1569353344
1.1576898008
1.1829219797
1.1390917454
1.1380361338
1.1633125629
1.1833204583
1.1403562321
1.1384748271
1.1763398335
1.1626743618
1.1425218989
1.1789934232
1.1787047667
1.1414158527
1.1672342497