<VTKFile type="UnstructuredGrid" version="0.1">
	<UnstructuredGrid>
		<Piece NumberOfPoints="1862" NumberOfCells="3498">
			<CellData>
				<DataArray type="Int32" Name="type" NumberOfComponents="1" Format="ascii">
0
0
0
0
0
0
0
0
0
0
0
0
0
0
0
0
1
0
0
1
0
0
0
0
0
0
0
0
0
0
0
0
0
1
0
0
0
0
0
0
0
0
0
0
0
0
0
0
0
0
1
0
0
0
0
0
0
0
0
0
0
1
0
0
0
0
0
0
0
0
0
0
0
0
0
0
0
0
0
0
0
0
0
0
0
0
0
0
0
0
0
0
0
0
0
0
0
0
0
0
0
0
0
0
0
0
0
0
0
0
0
0
0
0
0
0
0
0
0
0
0
0
0
1
0
0
0
0
0
0
0
0
0
0
0
0
0
0
0
0
0
0
0
0
0
0
0
0
0
0
0
1
0
1
1
0
0
0
0
0
0
0
0
0
0
0
0
0
1
0
1
0
0
0
0
1
0
0
0
0
0
0
0
0
1
1
0
0
0
0
0
1
0
0
0
0
0
0
0
0
1
0
0
0
0
0
0
0
0
0
0
0
0
0
0
0
0
0
0
0
0
0
0
0
0
0
0
0
0
0
0
0
0
1
0
0
0
0
0
0
0
0
0
0
0
0
0
0
0
0
0
0
0
0
0
0
0
0
0
0
0
0
0
0
0
0
0
0
0
0
0
0
0
0
0
0
0
0
0
0
0
1
0
0
0
0
0
0
0
0
0
0
0
0
0
0
0
0
0
0
0
0
0
0
0
0
0
0
0
0
0
0
0
0
0
0
0
0
0
0
0
0
0
0
0
0
0
0
0
0
0
0
1
0
0
0
0
0
0
0
0
0
0
0
0
0
0
0
0
0
0
0
0
0
0
0
0
0
0
0
0
0
0
0
0
0
0
0
0
0
0
0
0
0
0
0
0
0
0
0
0
0
0
0
0
0
0
0
0
0
1
0
0
0
0
0
0
0
0
0
0
0
0
0
0
0
0
0
0
0
0
0
0
0
0
0
0
0
0
0
0
0
0
0
0
0
0
0
0
0
0
0
0
0
0
0
0
0
0
0
0
0
0
0
0
0
0
0
0
0
0
0
0
0
0
0
0
0
0
0
0
0
0
0
0
0
0
0
0
0
0
0
0
0
0
0
0
0
0
0
0
0
0
0
0
0
0
0
0
0
0
0
0
0
0
0
0
0
0
0
0
0
0
0
0
0
0
0
0
0
0
0
0
0
0
0
0
0
0
0
0
0
0
1
0
0
0
0
0
0
0
0
0
0
0
0
0
0
0
0
0
0
0
1
0
0
0
0
0
0
0
0
0
0
0
0
0
0
0
0
0
0
0
0
0
0
0
0
0
0
0
0
0
0
0
0
0
0
0
0
0
0
0
0
0
0
0
0
0
0
0
0
0
0
0
0
0
1
0
0
0
0
0
0
0
0
0
0
0
0
0
0
0
0
0
0
0
0
0
0
0
1
0
0
0
0
0
0
0
0
0
0
0
0
0
0
0
0
0
0
0
1
0
0
0
1
0
0
0
0
0
0
0
0
0
0
0
0
0
0
0
0
0
0
0
0
0
0
0
0
0
1
0
0
0
0
0
0
0
1
0
0
0
0
0
0
0
0
0
0
0
0
0
0
0
0
0
0
0
0
0
0
0
0
0
0
1
0
0
0
0
0
0
0
1
0
0
0
0
0
0
1
0
0
0
0
0
0
0
0
0
0
0
0
0
0
0
0
0
0
0
0
0
0
0
0
0
0
0
0
0
0
0
0
0
0
0
0
0
0
1
0
0
0
0
0
1
0
0
0
0
0
0
0
1
0
0
0
0
0
0
0
0
0
0
0
0
0
1
0
0
0
0
0
0
0
0
0
0
0
0
0
0
0
0
0
0
0
0
0
0
0
0
0
0
0
0
0
0
0
0
0
0
0
0
0
0
0
0
0
0
0
0
0
0
0
0
0
0
0
0
0
1
0
0
0
0
0
0
0
0
0
0
0
0
0
0
0
0
0
0
0
1
0
0
0
0
0
0
0
0
0
1
0
0
0
0
0
0
0
0
0
0
0
0
0
0
0
0
0
0
0
0
0
0
0
0
0
0
0
0
0
1
0
1
0
0
0
0
0
0
0
0
0
0
0
0
0
0
0
0
0
0
0
0
0
0
0
0
0
0
0
1
0
0
0
1
0
0
0
0
0
0
0
0
0
0
0
0
0
0
0
0
0
0
0
0
0
0
0
0
0
0
0
0
1
0
0
0
0
0
0
0
0
0
0
0
0
0
0
0
0
0
0
0
0
0
0
0
0
0
1
0
0
0
0
0
0
0
0
0
0
0
0
0
0
0
0
0
0
0
0
0
0
0
1
0
0
0
0
0
0
1
0
0
0
0
0
0
0
0
0
0
0
1
0
0
0
0
0
0
0
0
0
0
0
0
0
0
0
0
0
0
0
0
1
0
0
0
0
0
0
0
0
0
0
0
1
0
0
0
0
0
0
0
0
0
0
0
0
0
0
0
0
0
0
0
0
0
1
0
0
0
0
0
0
0
0
0
1
1
0
1
0
1
0
0
0
0
0
0
0
0
0
0
0
1
0
0
0
0
0
1
1
0
0
0
0
0
0
1
0
0
0
0
0
1
1
1
0
0
0
0
0
0
0
0
0
0
0
0
1
1
0
0
1
0
0
0
0
0
1
0
0
0
1
0
1
0
0
0
0
0
0
0
1
0
0
0
0
0
0
0
1
0
0
1
0
0
0
0
0
0
0
0
0
0
0
0
0
0
0
1
0
0
0
0
0
0
0
0
0
0
0
0
0
0
0
0
0
0
0
0
0
0
0
0
0
0
0
0
0
0
0
0
0
0
0
0
1
0
0
0
0
0
0
1
0
0
0
1
0
0
0
0
0
0
0
0
0
0
0
1
0
0
0
0
0
0
0
0
0
0
0
0
0
0
0
0
0
0
0
0
0
0
0
0
0
0
0
0
0
0
0
0
0
0
0
0
0
0
0
0
1
1
0
0
0
0
0
0
0
0
0
0
0
0
0
1
0
0
0
0
0
0
0
0
0
0
0
0
0
0
0
0
0
0
0
0
0
0
0
0
0
0
0
0
0
0
0
0
0
0
0
0
0
0
0
0
0
0
0
0
0
0
0
0
0
0
0
0
0
0
0
0
0
0
0
0
0
0
0
0
0
0
0
0
0
0
0
0
1
1
0
0
0
0
0
0
0
0
1
0
0
0
0
0
0
0
0
0
0
0
0
0
0
0
0
0
0
0
0
0
0
0
1
0
0
0
0
0
0
0
0
0
0
0
0
0
0
0
0
1
0
0
0
0
0
0
0
0
0
0
0
0
0
0
0
0
0
0
0
0
0
0
0
0
0
0
0
0
0
0
0
0
0
0
0
0
0
0
0
0
0
0
0
0
0
0
0
0
0
0
0
0
0
0
0
0
0
0
0
0
0
0
0
0
0
0
0
0
0
0
0
0
0
0
0
0
0
0
0
0
0
0
0
0
0
0
0
0
0
0
1
1
0
0
0
0
0
1
0
0
0
0
0
0
0
0
0
0
0
0
1
0
0
0
0
0
0
0
0
0
0
0
0
0
0
0
0
0
0
0
0
0
0
0
0
0
0
0
0
0
0
0
0
0
0
0
0
0
0
0
0
0
0
0
0
0
0
0
0
0
0
0
0
0
1
0
1
0
0
0
0
0
0
0
0
0
0
0
0
0
0
0
0
0
0
1
0
0
0
0
0
0
0
0
0
0
0
0
0
0
0
0
0
0
0
0
0
0
0
0
0
0
0
0
0
0
0
0
0
0
0
0
0
0
0
0
0
0
0
0
0
0
0
0
0
0
0
0
0
0
0
0
0
0
0
0
0
0
0
0
0
0
0
0
0
0
1
0
0
0
0
0
0
0
0
0
0
1
0
0
0
0
0
0
0
0
0
0
0
0
0
0
0
0
0
0
0
0
0
0
0
0
0
0
0
0
0
0
0
0
0
0
0
0
0
1
0
0
0
0
0
0
0
0
0
0
0
0
0
0
0
0
0
0
0
0
0
0
0
0
0
0
0
0
0
0
0
0
0
0
0
0
0
0
0
0
0
0
0
0
0
0
0
0
0
0
0
0
0
0
0
0
0
0
0
0
0
0
0
0
0
0
0
0
0
0
0
0
0
0
0
0
0
0
0
0
0
1
0
0
0
0
0
0
0
0
0
0
0
0
0
0
0
0
0
0
0
0
0
0
0
0
0
0
0
0
0
0
0
0
0
0
0
0
0
0
0
0
0
0
0
0
0
0
0
0
0
0
0
0
0
0
0
0
0
0
0
0
0
0
0
0
0
0
0
0
0
0
0
0
0
0
0
0
0
0
0
0
0
0
0
0
0
0
0
0
0
0
0
0
0
0
0
0
0
0
0
0
0
0
0
0
0
0
0
0
0
0
0
0
0
0
0
0
0
0
0
0
0
0
0
1
0
0
0
0
0
0
0
0
0
0
0
0
0
0
0
0
0
0
0
0
0
0
0
0
0
0
0
0
0
0
0
0
0
0
0
0
0
0
0
0
0
0
0
0
0
0
0
0
0
0
0
0
0
0
0
0
0
0
0
0
0
0
0
0
0
0
0
0
0
0
0
0
0
0
0
0
0
0
0
0
0
1
0
0
0
0
0
0
0
1
0
0
0
0
0
0
0
0
0
0
0
0
0
0
0
0
0
0
0
0
0
0
0
0
0
0
0
0
0
0
0
0
0
0
0
0
0
1
0
0
0
0
0
0
0
0
0
0
0
0
0
0
0
0
0
0
0
0
0
1
0
0
0
0
0
0
0
0
0
0
0
0
1
1
0
0
0
0
0
0
0
0
0
0
0
0
0
0
0
1
1
0
1
0
0
0
0
0
0
0
0
0
1
0
0
0
0
0
0
1
0
0
0
0
0
0
0
0
0
0
1
0
0
0
0
1
0
1
0
0
0
0
0
0
0
1
0
0
0
1
0
0
0
1
0
1
1
0
0
1
1
0
0
0
1
0
0
0
1
0
0
0
0
0
0
0
0
0
1
0
0
0
0
0
0
1
0
0
0
0
0
0
0
0
0
0
0
0
0
0
0
0
0
0
0
0
0
0
0
0
0
0
0
1
0
0
1
0
0
0
0
0
0
0
0
0
0
0
0
0
0
0
0
0
0
1
0
0
1
0
0
0
0
0
0
0
0
0
0
0
1
0
0
1
0
0
0
0
0
0
0
0
0
0
0
1
1
0
0
0
0
0
0
0
0
0
0
0
0
1
0
0
0
0
0
0
0
0
0
0
0
0
0
0
0
0
0
1
0
0
0
0
0
0
0
0
0
0
0
0
0
0
0
0
0
1
0
0
0
0
0
0
0
0
0
0
0
0
0
0
0
0
0
0
0
0
0
0
0
0
0
0
0
0
0
0
0
0
0
0
0
0
0
0
0
0
1
0
0
0
0
0
0
0
0
0
0
0
0
0
0
0
0
0
0
0
0
0
0
0
0
0
0
0
0
0
0
0
0
0
0
0
0
0
0
0
0
0
0
0
0
0
1
0
0
0
0
0
0
0
0
0
0
0
0
0
0
0
0
0
0
0
0
0
0
0
0
0
0
0
0
0
0
0
0
0
0
0
0
0
0
0
0
0
0
0
0
0
0
0
1
0
0
0
0
0
0
0
0
0
0
1
0
0
0
0
0
0
0
0
0
0
0
0
0
0
0
1
0
0
1
0
0
0
0
0
0
0
0
0
0
0
0
0
0
0
0
0
0
0
0
0
0
0
1
0
0
0
0
0
0
0
0
0
0
0
0
0
0
0
0
0
0
0
0
0
0
0
0
0
0
0
0
0
0
0
0
0
0
0
1
0
0
0
0
0
0
0
0
0
0
0
0
0
0
0
0
0
0
0
0
0
0
0
0
0
0
0
0
0
0
0
0
0
0
0
0
0
0
0
0
0
0
0
0
0
0
0
0
0
0
0
0
0
0
0
0
0
0
0
0
0
0
0
0
0
0
0
0
0
0
0
0
0
0
0
0
1
0
0
0
0
0
0
0
0
0
0
0
0
0
0
0
0
0
0
0
0
0
0
0
0
0
0
0
0
0
0
0
0
0
0
0
0
0
0
0
1
0
0
0
0
0
0
0
0
0
0
0
0
1
1
0
0
0
0
0
0
0
0
0
0
0
0
0
0
0
0
0
0
0
0
0
0
0
0
0
0
0
0
0
0
0
0
0
0
0
0
0
0
0
0
0
0
0
0
0
0
0
0
0
0
0
0
0
0
0
0
0
0
0
0
0
0
0
0
0
0
0
0
0
0
0
0
0
0
0
0
0
0
0
0
0
0
0
0
0
0
0
0
0
0
0
0
0
0
0
0
0
0
0
0
0
1
0
1
0
0
0
0
0
0
0
1
1
1
1
0
0
0
0
0
0
0
0
0
0
0
0
0
0
0
0
0
0
0
0
0
0
0
0
0
0
0
0
1
1
0
0
0
0
0
0
0
0
0
0
0
0
0
0
0
0
0
0
1
0
0
0
0
0
0
0
1
1
0
1
1
0
0
1
0
0
0
0
0
0
0
1
0
1
0
0
0
0
0
0
0
0
0
0
0
0
0
0
0
0
0
0
0
0
0
0
0
0
0
0
0
1
1
0
0
0
1
1
0
0
0
0
1
0
0
1
0
1
0
0
0
0
0
1
0
0
0
1
0
0
0
0
0
0
0
0
0
0
0
0
0
0
0
0
0
0
0
0
0
0
0
0
0
0
0
1
0
0
0
0
0
0
1
0
0
0
0
0
0
0
0
0
0
0
0
0
0
0
0
0
0
0
0
0
0
0
0
0
0
0
0
0
1
0
1
0
0
0
0
0
0
0
1
0
0
0
0
0
0
0
0
0
0
0
1
0
0
0
0
0
0
0
0
0
1
0
0
0
0
0
0
0
1
0
0
0
0
0
0
0
1
0
0
0
0
0
0
0
0
0
0
0
0
0
0
0
0
0
0
0
1
0
1
0
0
0
0
0
1
0
0
0
0
0
0
0
0
0
0
0
0
0
0
0
0
0
0
0
0
0
0
0
0
0
1
0
1
0
0
0
0
0
0
0
0
0
1
0
0
0
0
0
1
0
0
0
0
0
0
0
0
0
0
0
0
0
0
0
1
0
0
0
0
0
0
0
0
1
0
0
0
0
0
0
0
0
0
0
0
0
0
0
0
0
0
0
0
0
0
0
0
0
0
0
0
0
0
0
1
0
0
0
0
0
0
0
0
0
0
0
0
0
0
0
0
1
0
0
0
0
0
0
0
0
1
0
0
0
0
0
0
0
0
0
1
0
0
0
0
0
1
0
0
0
0
0
0
0
0
0
0
0
0
0
0
0
0
0
0
0
1
0
0
0
0
0
0
1
0
0
0
0
0
0
0
0
1
0
0
0
0
0
0
0
0
0
0
0
0
0
0
1
0
0
1
0
0
0
1
0
0
0
0
0
0
0
0
0
0
0
0
0
0
0
0
1
0
0
0
0
0
0
0
0
0
0
1
0
1
0
0
0
0
0
0
1
0
0
0
0
0
0
0
0
0
0
0
0
0
0
0
0
0
0
0
0
0
0
0
0
0
0
0
1
1
0
0
0
0
0
0
1
0
0
0
0
0
0
0
0
0
0
0
0
0
1
0
0
0
0
0
0
0
1
0
0
0
0
0
0
0
0
0
0
0
0
0
0
0
0
0
0
0
0
0
0
0
0
0
0
0
1
0
0
0
0
0
0
0
0
0
0
1
0
0
1
0
0
0
0
0
0
0
0
0
0
0
0
0
0
0
0
0
0
0
0
0
0
0
0
0
0
0
0
0
1
0
0
0
0
0
0
0
1
0
0
0
0
0
0
0
1
0
0
0
0
1
0
0
0
0
0
0
0
0
0
0
0
1
0
1
0
0
0
1
0
				</DataArray>
				<DataArray type="Float64" Name="h" NumberOfComponents="1" Format="ascii">
1.0590053323
1.0590302476
1.0368422838
1.0437656807
1.0409299860
1.0402285823
1.0436792207
1.0546112283
1.0474876399
1.0598582242
1.0473621414
1.0383408150
1.0666358279
1.0492465087
1.0587331742
1.0749390000
1.0392854209
1.0638004616
1.0645947472
1.0451623275
1.0305285180
1.0729032412
1.0643940683
1.0361783330
1.0424444879
1.0755483793
1.0778814555
1.0656469306
1.0547386174
1.0527883779
1.0479373970
1.0586537598
1.0763233879
1.0329402795
1.0210757663
1.0433930374
1.0244774746
1.0724817255
1.0717471943
1.0318776236
1.0483396000
1.0506752094
1.0741919740
1.0642697278
1.0370498173
1.0634683425
1.0674248062
1.0193153447
1.0113431559
1.0198536155
1.0267038077
1.0531570705
1.0577604887
1.0354587035
1.0404333403
1.0803463418
1.0559860533
1.0135022699
1.0177434602
1.0276606179
1.0069945873
1.0072531210
1.0111972164
1.0457056696
1.0677219996
1.0621013286
1.0313147390
1.0196705371
1.0093078546
1.0091844538
1.0146555863
1.0324002832
1.0794485072
1.0295566336
1.0226359189
1.0827620650
1.0157614562
1.0105593800
1.0150954270
1.0768827647
1.0044775240
1.0566289627
1.0028285915
1.0313149291
1.0820496679
1.0759747676
1.0038765134
1.0456546991
1.0136517261
1.0059640526
1.0057656245
1.0788856068
1.0077197897
1.0114981963
1.0655324829
1.0704574847
1.0608498980
1.0790736785
1.0724346691
1.0048095945
1.0041496682
1.0037975921
1.0518367023
1.0134228159
1.0661233231
1.0446094029
1.0740555217
1.0082752024
1.0135306398
1.0584046962
1.0153818989
1.0083819453
1.0078570144
1.0079530088
1.0374310962
1.0014920921
1.0441790896
1.0598051806
1.0038188246
1.0245985224
1.0626896973
1.0530691543
1.0826002985
1.0572625672
1.0108768807
1.0058326093
1.0304624273
1.0600411788
1.0013468732
1.0018016462
1.0027584937
1.0674601311
1.0190421783
1.0006972898
1.0569609983
1.0038523119
1.0766303998
1.0007293246
1.0022591726
1.0797903598
1.0634855146
1.0562579941
1.0018181825
1.0813526558
1.0779165293
1.0030646434
1.0785367709
1.0004715418
1.0597798994
1.0001859866
1.0766142115
1.0004686298
1.0004747969
1.0000937242
1.0028132582
1.0008220706
1.0001814253
1.0667774788
1.0001739646
1.0626243161
1.0817213628
1.0004169578
1.0788002687
1.0648986247
1.0641391855
1.0011634041
1.0830502891
1.0800256923
1.0591535867
1.0005645271
1.0002327062
1.0593042338
1.0001165014
1.0687189358
1.0851659375
1.0000247006
1.0834447486
1.0005092798
1.0000434454
1.0667008157
1.0011630862
1.0867472382
1.0645570694
1.0843718512
1.0602958608
1.0587201648
1.0846811420
1.0000695841
1.0593727300
1.0559122974
1.0880899160
1.0000514723
1.0617511082
1.0860626174
1.0000301116
1.0007938019
1.0717922876
1.0890740349
1.0871502805
1.0000916836
1.0559334726
1.0814914347
1.0575786917
1.0000740512
1.0896156926
1.0713857274
1.0817483481
1.0782491980
1.0878828240
1.0852906568
1.0901508427
1.0598032001
1.0715322266
1.0703386022
1.0800091471
1.0913024539
1.0834968070
1.0739211901
1.0887273237
1.0664970362
1.0880374802
1.0115929746
1.0870790250
1.0321604828
1.0831400048
1.0002205939
1.0028606533
1.0599835071
1.0895843983
1.0060127470
1.0001296914
1.0203214321
1.0731266283
1.0001115254
1.0005274257
1.0459420209
1.0919823352
1.0846556184
1.0651004430
1.0885418558
1.0936934128
1.0811933706
1.0757416121
1.0872071049
1.0799999902
1.0834474914
1.0734021706
1.0906317578
1.0828439309
1.0777615605
1.0865754174
1.0922019088
1.0758811497
1.0929888947
1.0948551584
1.0750306643
1.0853241076
1.0816880073
1.0703374033
1.0258712223
1.0904542348
1.0888104417
1.0694138756
1.0399671774
1.0794483473
1.0008253706
1.0003609250
1.0924024928
1.0001578288
1.0156002930
1.0041788712
1.0890100580
1.0084263751
1.0533673931
1.0390091977
1.0936829159
1.0809888427
1.0550512189
1.0262576890
1.0874757192
1.0041919709
1.0001878677
1.0003439568
1.0008333140
1.0084296847
1.0154937763
1.0676136733
1.0871022562
1.0772964006
1.0791219325
1.0862992230
1.0954732452
1.0833956784
1.0825786549
1.0914874101
1.0970607112
1.0904576897
1.0851058421
1.0805621869
1.0750303360
1.0786868391
1.0843457181
1.0941194151
1.0981576613
1.0964221279
1.0892632267
1.0955312403
1.0883783766
1.0791990011
1.0931707630
1.0628786309
1.0774977163
1.0002616962
1.0959086263
1.0059052871
1.0327366069
1.0936289409
1.0115319489
1.0005684508
1.0924135388
1.0484407819
1.0859702464
1.0204743778
1.0012736456
1.0870910545
1.0762503492
1.0640861322
1.0005512326
1.0475626493
1.0203893713
1.0059686995
1.0012656201
1.0003055775
1.0969953696
1.0331419937
1.0921062709
1.0114858040
1.0887902303
1.0018055919
1.0944788246
1.1004329218
1.0936017643
1.0801067546
1.0988563915
1.0850259839
1.0892067079
1.0845763225
1.0813931726
1.0101258996
1.1001950588
1.1013725732
1.0642933625
1.0865707297
1.0813517314
1.0048881524
1.0918384199
1.0986747738
1.0990075584
1.0912040373
1.0460655614
1.0311890500
1.0019094970
1.0786880118
1.0975576374
1.0996383053
1.0868836574
1.1062683224
1.1032093067
1.0897078492
1.0811453268
1.0843409600
1.0229627691
1.0825239865
1.0008638413
1.0404818215
1.0570339894
1.0018910985
1.0793829804
1.0081112997
1.0965464031
1.0989164901
1.0153891212
1.0004181631
1.0969456033
1.0261821955
1.0957762011
1.0910313068
1.0715399321
1.0841113170
1.1115072789
1.0004798090
1.0997687763
1.0564919926
1.1133789553
1.0018575043
1.0407082597
1.0740405167
1.0890918475
1.0976175380
1.1162878849
1.0918249487
1.0082528849
1.1163222795
1.0262181574
1.1151869844
1.0008494707
1.0152425221
1.0957013953
1.0832655911
1.1148934068
1.0722990793
1.1031731059
1.0400375671
1.1020335704
1.0912442389
1.0051375287
1.0145912143
1.0969667049
1.0472160799
1.0978439526
1.1081670208
1.1097908493
1.0860473488
1.0185806866
1.0034234905
1.0726819092
1.0018155716
1.0818641091
1.0371434131
1.1022854984
1.0962349989
1.0033155559
1.0708778376
1.0129163100
1.0933682856
1.0791290614
1.0320191841
1.0253896594
1.0037881210
1.1097250791
1.1035165264
1.0916116388
1.0884450983
1.0582610913
1.1059377515
1.0941343916
1.0930010468
1.1018627652
1.0568119528
1.0429845655
1.0764310639
1.0009575103
1.0811477442
1.1010777912
1.1011847075
1.1097902126
1.0033330975
1.0159823780
1.0960995097
1.0079763188
1.0826577472
1.1027412104
1.0938289024
1.0006442306
1.0993765325
1.0486799714
1.0849984666
1.0948553453
1.1180451321
1.0871080819
1.0027175596
1.1007802948
1.0200275974
1.1049972731
1.1015972387
1.0789529209
1.0069715717
1.1174076005
1.0825880832
1.0773827368
1.0778678036
1.1057642481
1.0902258342
1.0012631875
1.0399811966
1.0223514469
1.0111165500
1.0820482232
1.0650282371
1.0910193699
1.1053887343
1.0986341426
1.0051141550
1.0830985035
1.0740414194
1.1057661601
1.0974498542
1.0147620430
1.0328546580
1.0729781110
1.0867194580
1.0531623190
1.1130041784
1.0976179604
1.1162875148
1.1033670332
1.0887879794
1.0824409601
1.1052283196
1.1033443883
1.0820473321
1.1057483789
1.0938732701
1.1007798385
1.1107298021
1.0825909296
1.0808329975
1.1063812548
1.0827682472
1.1016841906
1.1057493929
1.1005117044
1.1046322336
1.0015050106
1.0932751810
1.0483952503
1.0542210443
1.0980867254
1.1134550076
1.1078523477
1.0603746666
1.0938286917
1.0884664256
1.0866658650
1.0871100126
1.1216112361
1.0831014597
1.0974491862
1.0824437995
1.1134545598
1.1057650955
1.1234718513
1.1086978385
1.0827032522
1.1222742482
1.0977000774
1.0649207905
1.1049980942
1.1238949815
1.0956240301
1.0042808033
1.1175364713
1.0896102598
1.1162078945
1.0834933655
1.1130605393
1.1079357034
1.0801829611
1.0275118555
1.0085929669
1.1068415791
1.0672163930
1.0159801215
1.0902266418
1.1189885482
1.0253580199
1.1033672041
1.0849933612
1.1003536061
1.0009577851
1.1047382468
1.1027940261
1.0702333601
1.0994755138
1.0978450669
1.0818142488
1.1040512983
1.1081368150
1.0938720582
1.1111498620
1.1016337262
1.0567703030
1.0867184821
1.0363495187
1.1057712285
1.0865796081
1.0037908079
1.0399916159
1.0930021697
1.0984307554
1.0018175830
1.1258817528
1.1055443887
1.1200121284
1.1172059963
1.1010785468
1.1115761307
1.0822656385
1.0064920564
1.1192561462
1.1159844466
1.1094426938
1.0127003739
1.0956600237
1.0726598034
1.1232805995
1.1288173401
1.0334280834
1.0145784802
1.0297502763
1.1302966008
1.0838632370
1.0499339413
1.0726545125
1.1081364936
1.0906349698
1.1007803283
1.0866676006
1.1047387182
1.1078526161
1.0932751634
1.0027213540
1.1099660230
1.0824875378
1.0827706784
1.1062402255
1.0877506180
1.0390837787
1.0834958978
1.1286960379
1.1288172136
1.1056280020
1.1328798315
1.1079356415
1.1016842925
1.1068421179
1.0896110385
1.0722350498
1.0248897263
1.0883242266
1.1035262244
1.0827055087
1.1310589754
1.1266326496
1.1127425508
1.0043198832
1.0672249016
1.1162076757
1.1289056389
1.0203234453
1.1281190605
1.1061715345
1.0807126933
1.0883938400
1.1467335453
1.1120309341
1.1123677826
1.0976999100
1.0855547847
1.1006728683
1.0816418455
1.0837263694
1.0962581717
1.0558233517
1.0147542325
1.0944289178
1.0699790290
1.1099347948
1.0809966523
1.0943784647
1.0095939579
1.0060424990
1.1216109385
1.1332004041
1.1256840747
1.1196943186
1.0732298980
1.1281306867
1.1352574217
1.0074691798
1.0195532437
1.1229144686
1.1257847507
1.0631977341
1.1280569675
1.1297647729
1.1295846285
1.0416978333
1.0117234346
1.0274767864
1.1195573140
1.1045784988
1.1147067732
1.0967449468
1.1156980705
1.0467444367
1.0322279870
1.0760455755
1.0621730022
1.1326830350
1.0206080791
1.0109825046
1.0733717109
1.0248900579
1.0430568882
1.0297513450
1.0081761346
1.1175364686
1.0160105499
1.0717672491
1.0934121677
1.0086701254
1.0726550343
1.0124089985
1.0068217623
1.0672171572
1.0087075819
1.0510323105
1.0261377855
1.0166690418
1.0060426636
1.0697589423
1.0557836458
1.0503162548
1.0503454882
1.0558244989
1.0417670811
1.0383353580
1.0473537936
1.0499386919
1.0460368458
1.0402109161
1.0409520312
1.0460709745
1.0475079714
1.0587185209
1.0436648818
1.0556561925
1.0499499354
1.0417763768
1.0628697471
1.0637980020
1.0437694955
1.0368522659
1.0645624568
1.0527857479
1.0715192802
1.0365479947
1.0546226656
1.0755489147
1.0424432494
1.0598586751
1.0698792852
1.0666491433
1.0328134982
1.0772408145
1.0669059732
1.0556600382
1.0479362302
1.0628783432
1.0329412037
1.0763188095
1.0585992289
1.0787528738
1.0318674145
1.0753289740
1.0392832153
1.0749397476
1.0741667789
1.0717027329
1.0365505543
1.0715203727
1.0482953964
1.0492495996
1.0451588224
1.0328200809
1.0644498436
1.0223792573
1.0729173065
1.0271071450
1.0698912373
1.0305306127
1.0669408856
1.0713910444
1.0602822840
1.0193109977
1.0772419774
1.0370245845
1.0267046142
1.0673662296
1.0657199528
1.0361969960
1.0547989114
1.0559153782
1.0764774386
1.0778880779
1.0260966053
1.0675052873
1.0753601602
1.0428165222
1.0186516073
1.0787558469
1.0576919586
1.0223893459
1.0152313904
1.0149827973
1.0714193901
1.0271128011
1.0311058053
1.0603453984
1.0434322378
1.0676530065
1.0725219264
1.0279116680
1.0210796302
1.0111950068
1.0196681843
1.0529719343
1.0244781234
1.0456575063
1.0428602307
1.0196623011
1.0216470092
1.0643432539
1.0295350114
1.0339443575
1.0323757303
1.0794423962
1.0104357969
1.0809813821
1.0735003634
1.0261052261
1.0060434462
1.0186508758
1.0507287727
1.0157569827
1.0146510345
1.0234087983
1.0226201184
1.0765069749
1.0754093336
1.0093076361
1.0208045633
1.0675048416
1.0091859513
1.0311244343
1.0279299503
1.0686328905
1.0530342477
1.0250544221
1.0306389507
1.0252502403
1.0113459612
1.0532183602
1.0149830791
1.0635398439
1.0565724765
1.0313132549
1.0471517671
1.0152301512
1.0198489629
1.0069944794
1.0072519152
1.0754419652
1.0061827235
1.0234233560
1.0177527773
1.0260424823
1.0339771117
1.0843844458
1.0818873393
1.0196709685
1.0208033684
1.0374738873
1.0404716625
1.0113251204
1.0104358247
1.0060423632
1.0803503787
1.0490642149
1.0179935662
1.0809815629
1.0354967887
1.0216596257
1.0276837851
1.0788837841
1.0135032214
1.0735432619
1.0077179309
1.0250673829
1.0134243275
1.0723985775
1.0472017167
1.0833384639
1.0306644554
1.0037982617
1.0374766008
1.0067586313
1.0379889606
1.0621605593
1.0041416391
1.0313021531
1.0154681413
1.0790621951
1.0046313186
1.0704294167
1.0396822257
1.0252303938
1.0048086163
1.0446347297
1.0686696878
1.0018768793
1.0491202957
1.0135241903
1.0083746240
1.0061826721
1.0180029443
1.0078547167
1.0375085332
1.0827443878
1.0200896205
1.0260623098
1.0105620350
1.0818891371
1.0043819708
1.0843724512
1.0153892694
1.0583521916
1.0113280681
1.0067597778
1.0018823260
1.0427694203
1.0046305106
1.0759731580
1.0530507093
1.0185027700
1.0154666629
1.0681558054
1.0397231977
1.0380100922
1.0820405967
1.0768908388
1.0038765022
1.0028377251
1.0044774166
1.0441277367
1.0150963400
1.0374381820
1.0626945018
1.0456457849
1.0833330095
1.0043832345
1.0674505909
1.0254712523
1.0721309866
1.0058267475
1.0103595379
1.0057779765
1.0136575657
1.0655551165
1.0114985619
1.0026088899
1.0059756525
1.0057682393
1.0057367441
1.0108598190
1.0108754765
1.0304384458
1.0200573139
1.0017991983
1.0518743490
1.0027342526
1.0315856470
1.0428200495
1.0681535420
1.0185122474
1.0080995840
1.0569621574
1.0038492379
1.0190341650
1.0661201651
1.0608343596
1.0779234394
1.0376310434
1.0562583025
1.0146431874
1.0721267393
1.0026128353
1.0079558153
1.0082832729
1.0749994520
1.0108583335
1.0057802574
1.0374640571
1.0597824031
1.0254357227
1.0018167166
1.0585432474
1.0014936691
1.0103634235
1.0030632455
1.0057418792
1.0740376691
1.0575863253
1.0847479723
1.0443069826
1.0003616559
1.0027389095
1.0081014699
1.0742552600
1.0008806899
1.0040635725
1.0027146633
1.0246138148
1.0315105832
1.0004686266
1.0598041890
1.0023378099
1.0038220375
1.0540131876
1.0766152670
1.0004744734
1.0028137191
1.0749963864
1.0585430601
1.0800242440
1.0641424456
1.0146452453
1.0002633403
1.0575847262
1.0614637058
1.0003011123
1.0502046895
1.0375672973
1.0572624026
1.0013474391
1.0817214027
1.0623545671
1.0825779573
1.0027600845
1.0526719186
1.0787998541
1.0015856613
1.0004161748
1.0600397056
1.0001737232
1.0027147796
1.0766269411
1.0006973646
1.0004071282
1.0570195573
1.0040712432
1.0009658268
1.0007298521
1.0001164450
1.0502592539
1.0718159228
1.0022588945
1.0540131669
1.0442110467
1.0742534243
1.0003617603
1.0847308123
1.0023382260
1.0005636462
1.0012845521
1.0008810616
1.0002326700
1.0687211474
1.0001862852
1.0645572529
1.0627480518
1.0623505211
1.0614623265
1.0018328318
1.0002695473
1.0001108223
1.0813522199
1.0004725344
1.0785379251
1.0667019425
1.0003017628
1.0526722692
1.0501418282
1.0667702055
1.0634834268
1.0011607999
1.0015860236
1.0834472535
1.0016224446
1.0797911055
1.0002637062
1.0626743986
1.0593723364
1.0008233929
1.0001815215
1.0718143180
1.0712702027
1.0004075434
1.0543631873
1.0502574407
1.0569540728
1.0602952701
1.0009669245
1.0000937495
1.0667753464
1.0012845429
1.0846891582
1.0759498291
1.0000301053
1.0830466716
1.0626737688
1.0018375466
1.0007914044
1.0667702341
1.0001109259
1.0016222449
1.0007549341
1.0607249046
1.0002698134
1.0627134306
1.0617543471
1.0000514585
1.0008940437
1.0648976739
1.0011660074
1.0860749066
1.0003197058
1.0626244277
1.0815214401
1.0000371827
1.0593046763
1.0575775761
1.0851599004
1.0000739968
1.0712255714
1.0591541755
1.0559325117
1.0543625756
1.0871645901
1.0000517389
1.0000434635
1.0688160794
1.0607253068
1.0617535161
1.0598024098
1.0003204534
1.0007569594
1.0692784666
1.0012373959
1.0867374122
1.0008939897
1.0000247059
1.0759243127
1.0600698805
1.0587925268
1.0005108993
1.0715318968
1.0878966971
1.0880777805
1.0001295570
1.0000371873
1.0559129627
1.0000517490
1.0001190259
1.0000642625
1.0843490852
1.0587218464
1.0000696317
1.0880519909
1.0734017598
1.0834462096
1.0741110940
1.0799963661
1.0890617870
1.0587928022
1.0920963322
1.0639176440
1.0872136773
1.0761802309
1.0688152293
1.0919910160
1.0617513844
1.0631013874
1.0012421393
1.0717916201
1.0681696557
1.0816847015
1.0780605210
1.0929951994
1.0853266573
1.0758794802
1.0906419408
1.0600696685
1.0651014798
1.0692781290
1.0002058215
1.0935873044
1.0896046395
1.0001191614
1.0155224762
1.0890195324
1.0000642595
1.0391394158
1.0874898563
1.0003431205
1.0041793983
1.0012623013
1.0676925013
1.0924066856
1.0084213472
1.0000916887
1.0259570505
1.0794867771
1.0001578393
1.0019150345
1.0008218619
1.0534895079
1.0901396727
1.0862990116
1.0795519662
1.0664967683
1.0904642471
1.0954764298
1.0761818028
1.0920885735
1.0741113232
1.0687209630
1.0956226313
1.0825738398
1.0772948853
1.0639178385
1.0852855157
1.0782513145
1.0817503008
1.0713856314
1.0887161003
1.0843424017
1.0791958076
1.0631008813
1.0883819840
1.0941255418
1.0739218468
1.0912930839
1.0964220628
1.0808988544
1.0730766318
1.0834956388
1.0780632724
1.0800116236
1.0681687893
1.0202784069
1.0924210315
1.0969569531
1.0921059615
1.0763031449
1.0477100171
1.0730749511
1.0019234792
1.0005291435
1.0005495163
1.0895723652
1.0001115020
1.0019204666
1.0204569328
1.0059599849
1.0870700778
1.0002061574
1.0060229237
1.0458309566
1.0320699478
1.0959044415
1.0859847588
1.0629887486
1.0328643987
1.0831131670
1.0028701962
1.0012673084
1.0002616792
1.0935833149
1.0002209065
1.0012679465
1.0115464888
1.0028409512
1.0115883594
1.0598958279
1.0887907023
1.0819825360
1.0757425053
1.0687209371
1.0801041840
1.0846569526
1.0936875450
1.0987351843
1.0845721942
1.0956232212
1.0811978234
1.0936062905
1.0988553618
1.0885358175
1.0795556890
1.0865684266
1.0813478596
1.0730761274
1.0771899456
1.0828477101
1.0921938988
1.0996348097
1.0828667893
1.0948522876
1.0809034095
1.0912071708
1.0975595298
1.0865729656
1.0777638964
1.0956957326
1.0549230550
1.0832845816
1.0001878041
1.0936824047
1.0082546631
1.0261675051
1.0957802469
1.0084314707
1.0028515145
1.0028135627
1.0008469043
1.0999161621
1.0904460903
1.0566082347
1.0809529357
1.0263073116
1.0008366667
1.0910294383
1.0693319036
1.0716051803
1.0003616812
1.0969601465
1.0040757210
1.0398326704
1.0155673011
1.0041897802
1.0018844832
1.0004180543
1.0989111891
1.0406096828
1.0888000725
1.0154248409
1.0019283506
1.0051365352
1.0962350019
1.1017219163
1.0472377947
1.0871027240
1.0819871816
1.0025338452
1.0096166591
1.0969688540
1.1003454445
1.1022833174
1.0914826594
1.0633220447
1.0185898902
1.0024871704
1.0791240492
1.0970597416
1.0987398180
1.0860443666
1.0912447261
1.0834003882
1.1031731266
1.1061859204
1.0791361789
1.0818610641
1.0896381712
1.0301006808
1.0835821615
1.0073883651
1.0981881796
1.1027384725
1.0562292040
1.0851090006
1.0805657215
1.0013752267
1.0067488833
1.0941362904
1.0963608569
1.1011841667
1.0892606212
1.0541222587
1.0247075634
1.0015050094
1.0771903726
1.0955275639
1.0981596987
1.0841293468
1.0884437152
1.0828713908
1.1043299273
1.1049782612
1.0850786542
1.0801930699
1.0785759606
1.0177723461
1.0826540880
1.1116476898
1.0012604466
1.1026617905
1.0330248971
1.1174520999
1.0039945592
1.0650905739
1.0012704401
1.0773816257
1.0747186281
1.0917148032
1.0111277568
1.0910187944
1.1202180979
1.0986304598
1.0040841556
1.0969999369
1.1153926182
1.0114707759
1.1137554578
1.0003054663
1.0993777113
1.0329325420
1.0936238028
1.0870790530
1.0639830985
1.1170103302
1.0887889842
1.1130040532
1.0006440085
1.1015947113
1.0483042835
1.1159849187
1.0027122714
1.0487686025
1.0028222139
1.0790833071
1.0767253228
1.0843447541
1.0056791565
1.0938823394
1.1192830712
1.0948496217
1.0059115025
1.0999207890
1.1192563606
1.0204119373
1.1180455719
1.0005698367
1.0200701081
1.0931728571
1.0774489130
1.1174076655
1.0789768820
1.1013995560
1.0408733319
1.0325537076
1.0055106319
1.1063818934
1.1003451272
1.1005126315
1.0956235424
1.0892066304
1.0036510877
1.0747535161
1.0108410245
1.0036492345
1.1089889389
1.0944761176
1.0392720630
1.0954300999
1.1061853644
1.0933433251
1.1075596337
1.1032409308
1.0850298035
1.0140799070
1.0024876053
1.0651643169
1.0275152644
1.0393011021
1.0603787096
1.0012693191
1.0813960656
1.1021851881
1.0300873997
1.1004345730
1.1062679007
1.1081676932
1.0042810004
1.0085935712
1.0933424329
1.0884682846
1.0044785536
1.0633083534
1.0096144889
1.0148412300
1.0835864822
1.1017252588
1.0896353827
1.0724011447
1.0034230600
1.1001951299
1.0258097336
1.0196861005
1.0371521566
1.0026429140
1.1077270984
1.1032089902
1.1019883082
1.0875308489
1.0868858797
1.0025347649
1.0657892664
1.0076926417
1.1074622765
1.0918365019
1.0311679546
1.0893300210
1.1095708781
1.1095714967
1.1002612527
1.0841330817
1.0101223077
1.0048887143
1.0485572826
1.0355764318
1.0695431387
1.0007272415
1.0801945341
1.0992244906
1.0933695541
1.0460511514
1.0990070948
1.1075592340
1.0027214861
1.0121294976
1.0897057180
1.0930693258
1.0025644050
1.0785689884
1.0177670742
1.0106078529
1.0825278329
1.1013758030
1.0963600683
1.0642750772
1.0911589251
1.0004796729
1.0499351578
1.0127010479
1.0056823746
1.0969434959
1.0778687952
1.0406037633
1.0938828271
1.1027947855
1.0793315431
1.0918274000
1.1151865210
1.0064923771
1.0844678562
1.0747195677
1.0861036085
1.0018624597
1.1113831885
1.0977955892
1.0203242389
1.0152138937
1.0778919995
1.0924908438
1.0362442011
1.1116478376
1.0890924633
1.1150456972
1.1150452389
1.1027069191
1.0997724681
1.0722423853
1.0053548287
1.1148933986
1.1193285355
1.0826029090
1.0793842472
1.1040514258
1.1046589017
1.0752448559
1.0800725174
1.1046731827
1.0714260413
1.0842486297
1.0883802990
1.0008656715
1.0334291066
1.0176212316
1.0081092710
1.0817792980
1.0569363491
1.0843453837
1.1041266182
1.0965502216
1.1193281523
1.0043201212
1.0834575482
1.0767263920
1.0847058040
1.0040006859
1.1055441616
1.0945691593
1.0115081296
1.0261107749
1.0752457931
1.0820513486
1.0457287347
1.1115074196
1.0917152203
1.1192827147
1.1067924056
1.1006422461
1.1026642741
1.0840938231
1.0041947701
1.1170103124
1.0820137881
1.0790845573
1.0856994362
1.1046004553
1.1021682860
1.0799952596
1.0778911848
1.1040871456
1.0904407817
1.1203487566
1.0844712465
1.0977946847
1.1089884057
1.0826058586
1.0747506613
1.1097245137
1.1046012226
1.1268574971
1.1047883622
1.1028880226
1.0822712994
1.1234265287
1.0063417322
1.1051696868
1.0986122857
1.0666970927
1.1040885730
1.1236105927
1.0986114028
1.0850720947
1.1032400903
1.1009157500
1.0140867121
1.0013754482
1.1107302085
1.1043300647
1.0063415905
1.1191691183
1.0968651260
1.0408698143
1.0246871544
1.1143883454
1.0619969481
1.1013989883
1.0846203797
1.0956221101
1.0843380549
1.1111646237
1.1165611773
1.0129184397
1.1073253148
1.0659174817
1.0018066285
1.0191788511
1.1049776023
1.0524761334
1.0056756257
1.1091627026
1.0726044158
1.0524703602
1.0217346870
1.0911587583
1.1229388064
1.0835774277
1.0878486153
1.0861063189
1.0229561556
1.1248271867
1.0834609398
1.0945682007
1.1124688903
1.0820159345
1.0875289126
1.1111640873
1.0980879714
1.1046744552
1.1271204919
1.1035157555
1.1096151758
1.0826277903
1.1257849339
1.1013746976
1.0577276919
1.1027077406
1.1277922033
1.1020342161
1.0960981723
1.1059370807
1.0934116885
1.0019095841
1.0483976439
1.0044783950
1.1202420826
1.0921233628
1.0582578402
1.1182397691
1.0495849385
1.0826142281
1.1002602157
1.0056759340
1.1124692614
1.1147221773
1.1086319656
1.0717664173
1.0258074323
1.0079758327
1.1089052774
1.0564017803
1.0429795786
1.0148397391
1.0883816535
1.1217274323
1.0764278686
1.0846017613
1.0847085061
1.0196571405
1.1006420735