<VTKFile type="UnstructuredGrid" version="0.1">
	<UnstructuredGrid>
		<Piece NumberOfPoints="1862" NumberOfCells="3498">
			<CellData>
				<DataArray type="Int32" Name="type" NumberOfComponents="1" Format="ascii">
0
0
0
0
0
0
0
0
0
0
0
0
0
0
0
0
1
0
0
1
0
0
0
0
0
0
0
0
0
0
0
0
0
1
0
0
0
0
0
0
0
0
0
0
0
0
0
0
0
0
1
0
0
0
0
0
0
0
0
0
0
1
0
0
0
0
0
0
0
0
0
0
0
0
0
0
0
0
0
0
0
0
0
0
0
0
0
0
0
0
0
0
0
0
0
0
0
0
0
0
0
0
0
0
0
0
0
0
0
0
0
0
0
0
0
0
0
0
0
0
0
0
0
1
0
0
0
0
0
0
0
0
0
0
0
0
0
0
0
0
0
0
0
0
0
0
0
0
0
0
0
1
0
1
1
0
0
0
0
0
0
0
0
0
0
0
0
0
1
0
1
0
0
0
0
1
0
0
0
0
0
0
0
0
1
1
0
0
0
0
0
1
0
0
0
0
0
0
0
0
1
0
0
0
0
0
0
0
0
0
0
0
0
0
0
0
0
0
0
0
0
0
0
0
0
0
0
0
0
0
0
0
0
1
0
0
0
0
0
0
0
0
0
0
0
0
0
0
0
0
0
0
0
0
0
0
0
0
0
0
0
0
0
0
0
0
0
0
0
0
0
0
0
0
0
0
0
0
0
0
0
1
0
0
0
0
0
0
0
0
0
0
0
0
0
0
0
0
0
0
0
0
0
0
0
0
0
0
0
0
0
0
0
0
0
0
0
0
0
0
0
0
0
0
0
0
0
0
0
0
0
0
1
0
0
0
0
0
0
0
0
0
0
0
0
0
0
0
0
0
0
0
0
0
0
0
0
0
0
0
0
0
0
0
0
0
0
0
0
0
0
0
0
0
0
0
0
0
0
0
0
0
0
0
0
0
0
0
0
0
1
0
0
0
0
0
0
0
0
0
0
0
0
0
0
0
0
0
0
0
0
0
0
0
0
0
0
0
0
0
0
0
0
0
0
0
0
0
0
0
0
0
0
0
0
0
0
0
0
0
0
0
0
0
0
0
0
0
0
0
0
0
0
0
0
0
0
0
0
0
0
0
0
0
0
0
0
0
0
0
0
0
0
0
0
0
0
0
0
0
0
0
0
0
0
0
0
0
0
0
0
0
0
0
0
0
0
0
0
0
0
0
0
0
0
0
0
0
0
0
0
0
0
0
0
0
0
0
0
0
0
0
0
1
0
0
0
0
0
0
0
0
0
0
0
0
0
0
0
0
0
0
0
1
0
0
0
0
0
0
0
0
0
0
0
0
0
0
0
0
0
0
0
0
0
0
0
0
0
0
0
0
0
0
0
0
0
0
0
0
0
0
0
0
0
0
0
0
0
0
0
0
0
0
0
0
0
1
0
0
0
0
0
0
0
0
0
0
0
0
0
0
0
0
0
0
0
0
0
0
0
1
0
0
0
0
0
0
0
0
0
0
0
0
0
0
0
0
0
0
0
1
0
0
0
1
0
0
0
0
0
0
0
0
0
0
0
0
0
0
0
0
0
0
0
0
0
0
0
0
0
1
0
0
0
0
0
0
0
1
0
0
0
0
0
0
0
0
0
0
0
0
0
0
0
0
0
0
0
0
0
0
0
0
0
0
1
0
0
0
0
0
0
0
1
0
0
0
0
0
0
1
0
0
0
0
0
0
0
0
0
0
0
0
0
0
0
0
0
0
0
0
0
0
0
0
0
0
0
0
0
0
0
0
0
0
0
0
0
0
1
0
0
0
0
0
1
0
0
0
0
0
0
0
1
0
0
0
0
0
0
0
0
0
0
0
0
0
1
0
0
0
0
0
0
0
0
0
0
0
0
0
0
0
0
0
0
0
0
0
0
0
0
0
0
0
0
0
0
0
0
0
0
0
0
0
0
0
0
0
0
0
0
0
0
0
0
0
0
0
0
0
1
0
0
0
0
0
0
0
0
0
0
0
0
0
0
0
0
0
0
0
1
0
0
0
0
0
0
0
0
0
1
0
0
0
0
0
0
0
0
0
0
0
0
0
0
0
0
0
0
0
0
0
0
0
0
0
0
0
0
0
1
0
1
0
0
0
0
0
0
0
0
0
0
0
0
0
0
0
0
0
0
0
0
0
0
0
0
0
0
0
1
0
0
0
1
0
0
0
0
0
0
0
0
0
0
0
0
0
0
0
0
0
0
0
0
0
0
0
0
0
0
0
0
1
0
0
0
0
0
0
0
0
0
0
0
0
0
0
0
0
0
0
0
0
0
0
0
0
0
1
0
0
0
0
0
0
0
0
0
0
0
0
0
0
0
0
0
0
0
0
0
0
0
1
0
0
0
0
0
0
1
0
0
0
0
0
0
0
0
0
0
0
1
0
0
0
0
0
0
0
0
0
0
0
0
0
0
0
0
0
0
0
0
1
0
0
0
0
0
0
0
0
0
0
0
1
0
0
0
0
0
0
0
0
0
0
0
0
0
0
0
0
0
0
0
0
0
1
0
0
0
0
0
0
0
0
0
1
1
0
1
0
1
0
0
0
0
0
0
0
0
0
0
0
1
0
0
0
0
0
1
1
0
0
0
0
0
0
1
0
0
0
0
0
1
1
1
0
0
0
0
0
0
0
0
0
0
0
0
1
1
0
0
1
0
0
0
0
0
1
0
0
0
1
0
1
0
0
0
0
0
0
0
1
0
0
0
0
0
0
0
1
0
0
1
0
0
0
0
0
0
0
0
0
0
0
0
0
0
0
1
0
0
0
0
0
0
0
0
0
0
0
0
0
0
0
0
0
0
0
0
0
0
0
0
0
0
0
0
0
0
0
0
0
0
0
0
1
0
0
0
0
0
0
1
0
0
0
1
0
0
0
0
0
0
0
0
0
0
0
1
0
0
0
0
0
0
0
0
0
0
0
0
0
0
0
0
0
0
0
0
0
0
0
0
0
0
0
0
0
0
0
0
0
0
0
0
0
0
0
0
1
1
0
0
0
0
0
0
0
0
0
0
0
0
0
1
0
0
0
0
0
0
0
0
0
0
0
0
0
0
0
0
0
0
0
0
0
0
0
0
0
0
0
0
0
0
0
0
0
0
0
0
0
0
0
0
0
0
0
0
0
0
0
0
0
0
0
0
0
0
0
0
0
0
0
0
0
0
0
0
0
0
0
0
0
0
0
0
1
1
0
0
0
0
0
0
0
0
1
0
0
0
0
0
0
0
0
0
0
0
0
0
0
0
0
0
0
0
0
0
0
0
1
0
0
0
0
0
0
0
0
0
0
0
0
0
0
0
0
1
0
0
0
0
0
0
0
0
0
0
0
0
0
0
0
0
0
0
0
0
0
0
0
0
0
0
0
0
0
0
0
0
0
0
0
0
0
0
0
0
0
0
0
0
0
0
0
0
0
0
0
0
0
0
0
0
0
0
0
0
0
0
0
0
0
0
0
0
0
0
0
0
0
0
0
0
0
0
0
0
0
0
0
0
0
0
0
0
0
0
1
1
0
0
0
0
0
1
0
0
0
0
0
0
0
0
0
0
0
0
1
0
0
0
0
0
0
0
0
0
0
0
0
0
0
0
0
0
0
0
0
0
0
0
0
0
0
0
0
0
0
0
0
0
0
0
0
0
0
0
0
0
0
0
0
0
0
0
0
0
0
0
0
0
1
0
1
0
0
0
0
0
0
0
0
0
0
0
0
0
0
0
0
0
0
1
0
0
0
0
0
0
0
0
0
0
0
0
0
0
0
0
0
0
0
0
0
0
0
0
0
0
0
0
0
0
0
0
0
0
0
0
0
0
0
0
0
0
0
0
0
0
0
0
0
0
0
0
0
0
0
0
0
0
0
0
0
0
0
0
0
0
0
0
0
0
1
0
0
0
0
0
0
0
0
0
0
1
0
0
0
0
0
0
0
0
0
0
0
0
0
0
0
0
0
0
0
0
0
0
0
0
0
0
0
0
0
0
0
0
0
0
0
0
0
1
0
0
0
0
0
0
0
0
0
0
0
0
0
0
0
0
0
0
0
0
0
0
0
0
0
0
0
0
0
0
0
0
0
0
0
0
0
0
0
0
0
0
0
0
0
0
0
0
0
0
0
0
0
0
0
0
0
0
0
0
0
0
0
0
0
0
0
0
0
0
0
0
0
0
0
0
0
0
0
0
0
1
0
0
0
0
0
0
0
0
0
0
0
0
0
0
0
0
0
0
0
0
0
0
0
0
0
0
0
0
0
0
0
0
0
0
0
0
0
0
0
0
0
0
0
0
0
0
0
0
0
0
0
0
0
0
0
0
0
0
0
0
0
0
0
0
0
0
0
0
0
0
0
0
0
0
0
0
0
0
0
0
0
0
0
0
0
0
0
0
0
0
0
0
0
0
0
0
0
0
0
0
0
0
0
0
0
0
0
0
0
0
0
0
0
0
0
0
0
0
0
0
0
0
0
1
0
0
0
0
0
0
0
0
0
0
0
0
0
0
0
0
0
0
0
0
0
0
0
0
0
0
0
0
0
0
0
0
0
0
0
0
0
0
0
0
0
0
0
0
0
0
0
0
0
0
0
0
0
0
0
0
0
0
0
0
0
0
0
0
0
0
0
0
0
0
0
0
0
0
0
0
0
0
0
0
0
1
0
0
0
0
0
0
0
1
0
0
0
0
0
0
0
0
0
0
0
0
0
0
0
0
0
0
0
0
0
0
0
0
0
0
0
0
0
0
0
0
0
0
0
0
0
1
0
0
0
0
0
0
0
0
0
0
0
0
0
0
0
0
0
0
0
0
0
1
0
0
0
0
0
0
0
0
0
0
0
0
1
1
0
0
0
0
0
0
0
0
0
0
0
0
0
0
0
1
1
0
1
0
0
0
0
0
0
0
0
0
1
0
0
0
0
0
0
1
0
0
0
0
0
0
0
0
0
0
1
0
0
0
0
1
0
1
0
0
0
0
0
0
0
1
0
0
0
1
0
0
0
1
0
1
1
0
0
1
1
0
0
0
1
0
0
0
1
0
0
0
0
0
0
0
0
0
1
0
0
0
0
0
0
1
0
0
0
0
0
0
0
0
0
0
0
0
0
0
0
0
0
0
0
0
0
0
0
0
0
0
0
1
0
0
1
0
0
0
0
0
0
0
0
0
0
0
0
0
0
0
0
0
0
1
0
0
1
0
0
0
0
0
0
0
0
0
0
0
1
0
0
1
0
0
0
0
0
0
0
0
0
0
0
1
1
0
0
0
0
0
0
0
0
0
0
0
0
1
0
0
0
0
0
0
0
0
0
0
0
0
0
0
0
0
0
1
0
0
0
0
0
0
0
0
0
0
0
0
0
0
0
0
0
1
0
0
0
0
0
0
0
0
0
0
0
0
0
0
0
0
0
0
0
0
0
0
0
0
0
0
0
0
0
0
0
0
0
0
0
0
0
0
0
0
1
0
0
0
0
0
0
0
0
0
0
0
0
0
0
0
0
0
0
0
0
0
0
0
0
0
0
0
0
0
0
0
0
0
0
0
0
0
0
0
0
0
0
0
0
0
1
0
0
0
0
0
0
0
0
0
0
0
0
0
0
0
0
0
0
0
0
0
0
0
0
0
0
0
0
0
0
0
0
0
0
0
0
0
0
0
0
0
0
0
0
0
0
0
1
0
0
0
0
0
0
0
0
0
0
1
0
0
0
0
0
0
0
0
0
0
0
0
0
0
0
1
0
0
1
0
0
0
0
0
0
0
0
0
0
0
0
0
0
0
0
0
0
0
0
0
0
0
1
0
0
0
0
0
0
0
0
0
0
0
0
0
0
0
0
0
0
0
0
0
0
0
0
0
0
0
0
0
0
0
0
0
0
0
1
0
0
0
0
0
0
0
0
0
0
0
0
0
0
0
0
0
0
0
0
0
0
0
0
0
0
0
0
0
0
0
0
0
0
0
0
0
0
0
0
0
0
0
0
0
0
0
0
0
0
0
0
0
0
0
0
0
0
0
0
0
0
0
0
0
0
0
0
0
0
0
0
0
0
0
0
1
0
0
0
0
0
0
0
0
0
0
0
0
0
0
0
0
0
0
0
0
0
0
0
0
0
0
0
0
0
0
0
0
0
0
0
0
0
0
0
1
0
0
0
0
0
0
0
0
0
0
0
0
1
1
0
0
0
0
0
0
0
0
0
0
0
0
0
0
0
0
0
0
0
0
0
0
0
0
0
0
0
0
0
0
0
0
0
0
0
0
0
0
0
0
0
0
0
0
0
0
0
0
0
0
0
0
0
0
0
0
0
0
0
0
0
0
0
0
0
0
0
0
0
0
0
0
0
0
0
0
0
0
0
0
0
0
0
0
0
0
0
0
0
0
0
0
0
0
0
0
0
0
0
0
0
1
0
1
0
0
0
0
0
0
0
1
1
1
1
0
0
0
0
0
0
0
0
0
0
0
0
0
0
0
0
0
0
0
0
0
0
0
0
0
0
0
0
1
1
0
0
0
0
0
0
0
0
0
0
0
0
0
0
0
0
0
0
1
0
0
0
0
0
0
0
1
1
0
1
1
0
0
1
0
0
0
0
0
0
0
1
0
1
0
0
0
0
0
0
0
0
0
0
0
0
0
0
0
0
0
0
0
0
0
0
0
0
0
0
0
1
1
0
0
0
1
1
0
0
0
0
1
0
0
1
0
1
0
0
0
0
0
1
0
0
0
1
0
0
0
0
0
0
0
0
0
0
0
0
0
0
0
0
0
0
0
0
0
0
0
0
0
0
0
1
0
0
0
0
0
0
1
0
0
0
0
0
0
0
0
0
0
0
0
0
0
0
0
0
0
0
0
0
0
0
0
0
0
0
0
0
1
0
1
0
0
0
0
0
0
0
1
0
0
0
0
0
0
0
0
0
0
0
1
0
0
0
0
0
0
0
0
0
1
0
0
0
0
0
0
0
1
0
0
0
0
0
0
0
1
0
0
0
0
0
0
0
0
0
0
0
0
0
0
0
0
0
0
0
1
0
1
0
0
0
0
0
1
0
0
0
0
0
0
0
0
0
0
0
0
0
0
0
0
0
0
0
0
0
0
0
0
0
1
0
1
0
0
0
0
0
0
0
0
0
1
0
0
0
0
0
1
0
0
0
0
0
0
0
0
0
0
0
0
0
0
0
1
0
0
0
0
0
0
0
0
1
0
0
0
0
0
0
0
0
0
0
0
0
0
0
0
0
0
0
0
0
0
0
0
0
0
0
0
0
0
0
1
0
0
0
0
0
0
0
0
0
0
0
0
0
0
0
0
1
0
0
0
0
0
0
0
0
1
0
0
0
0
0
0
0
0
0
1
0
0
0
0
0
1
0
0
0
0
0
0
0
0
0
0
0
0
0
0
0
0
0
0
0
1
0
0
0
0
0
0
1
0
0
0
0
0
0
0
0
1
0
0
0
0
0
0
0
0
0
0
0
0
0
0
1
0
0
1
0
0
0
1
0
0
0
0
0
0
0
0
0
0
0
0
0
0
0
0
1
0
0
0
0
0
0
0
0
0
0
1
0
1
0
0
0
0
0
0
1
0
0
0
0
0
0
0
0
0
0
0
0
0
0
0
0
0
0
0
0
0
0
0
0
0
0
0
1
1
0
0
0
0
0
0
1
0
0
0
0
0
0
0
0
0
0
0
0
0
1
0
0
0
0
0
0
0
1
0
0
0
0
0
0
0
0
0
0
0
0
0
0
0
0
0
0
0
0
0
0
0
0
0
0
0
1
0
0
0
0
0
0
0
0
0
0
1
0
0
1
0
0
0
0
0
0
0
0
0
0
0
0
0
0
0
0
0
0
0
0
0
0
0
0
0
0
0
0
0
1
0
0
0
0
0
0
0
1
0
0
0
0
0
0
0
1
0
0
0
0
1
0
0
0
0
0
0
0
0
0
0
0
1
0
1
0
0
0
1
0
				</DataArray>
				<DataArray type="Float64" Name="h" NumberOfComponents="1" Format="ascii">
1.1476433319
1.1476309684
1.1498410071
1.1463883551
1.1506413894
1.1498320652
1.1482795799
1.1454657356
1.1480101182
1.1429849508
1.1455254950
1.1486624085
1.1461836774
1.1440873350
1.1460889443
1.1449350395
1.1470848081
1.1437273939
1.1477215389
1.1445502789
1.1510666045
1.1474791363
1.1501314947
1.1522853540
1.1459405719
1.1445000060
1.1499900981
1.1573491253
1.1516944742
1.1431507910
1.1435145589
1.1501409303
1.1475562754
1.1498522342
1.1568699148
1.1534020548
1.1538477648
1.1513581767
1.1572110426
1.1522867629
1.1516965461
1.1574041479
1.1499572125
1.1529136744
1.1534273156
1.1558761061
1.1513588172
1.1585209708
1.1705040105
1.1694564514
1.1526588184
1.1545535483
1.1529131205
1.1628785852
1.1562871721
1.1511458077
1.1558230571
1.1611592241
1.1625845797
1.1619157279
1.1647094315
1.1635676380
1.1696589405
1.1546066738
1.1541580640
1.1600040573
1.1683778073
1.1685167893
1.1636036399
1.1623393753
1.1625007828
1.1566184054
1.1523991377
1.1641714380
1.1632983103
1.1593420744
1.1613811143
1.1648309658
1.1597387876
1.1587733093
1.1668270469
1.1613257141
1.1734440920
1.1673199446
1.1572212277
1.1608393988
1.1678149577
1.1661699298
1.1657895205
1.1728174860
1.1685346831
1.1594589790
1.1658261024
1.1720441472
1.1623794926
1.1609763128
1.1650364640
1.1573020147
1.1587173953
1.1678525859
1.1728884793
1.1669607009
1.1638583348
1.1596514328
1.1411359499
1.1675680881
1.1631888569
1.1713647446
1.1648569710
1.1624854635
1.1712335934
1.1721321574
1.1673717278
1.1689961272
1.1651433992
1.1717223971
1.1639428221
1.1417687789
1.1709044518
1.1664238769
1.1408886530
1.1650682172
1.1615314633
1.1384981613
1.1679347492
1.1714900355
1.1652587462
1.1383849222
1.1710752096
1.1720016359
1.1703403897
1.1634172818
1.1665966041
1.1718800227
1.1410092251
1.1702705475
1.1431397070
1.1722505027
1.1689002338
1.1466169223
1.1386362662
1.1393840722
1.1709682891
1.1488803605
1.1617666475
1.1694914470
1.1447362157
1.1736439705
1.1392685071
1.1740058771
1.1422172015
1.1724294807
1.1727012800
1.1738699163
1.1679732919
1.1727256008
1.1736281740
1.1400243083
1.1738407459
1.1367459810
1.1478395491
1.1734841196
1.1438985301
1.1379643426
1.1392733177
1.1730212458
1.1511512946
1.1458146606
1.1371416025
1.1729534475
1.1733826947
1.1362600237
1.1737533103
1.1400309728
1.1522448124
1.1742118216
1.1500168557
1.1742106086
1.1742366575
1.1381789829
1.1726988571
1.1544428583
1.1368466780
1.1624410070
1.1358681726
1.1355512841
1.1534178009
1.1741024952
1.1367581605
1.1352559963
1.1565737298
1.1742727431
1.1359207655
1.1556737082
1.1741602274
1.1739431212
1.1393714736
1.1586672034
1.1578242388
1.1742525562
1.1350968675
1.1638049083
1.1354203393
1.1741993520
1.1607821694
1.1380045898
1.1461411717
1.1424458254
1.1599233442
1.1501665990
1.1563939453
1.1358343306
1.1388900671
1.1379114769
1.1442859178
1.1583986876
1.1480920451
1.1391998594
1.1543491717
1.1367967890
1.1620830850
1.1727898225
1.1522619498
1.1708488690
1.1647312339
1.1746068294
1.1740408941
1.1682027276
1.1629641379
1.1735029650
1.1743271719
1.1719065516
1.1665209124
1.1744433776
1.1745890045
1.1695761773
1.1572110031
1.1475808391
1.1366392957
1.1513661737
1.1569980936
1.1439177118
1.1394726948
1.1512132059
1.1435332478
1.1472468656
1.1389695824
1.1552315606
1.1457395906
1.1407073115
1.1494589274
1.1551406752
1.1402836392
1.1592039447
1.1588733982
1.1394582881
1.1491966512
1.1453647899
1.1379099905
1.1718144946
1.1532651304
1.1651879399
1.1686703128
1.1714441380
1.1660701098
1.1746404724
1.1750177033
1.1625204834
1.1745075782
1.1734594201
1.1746543747
1.1532349223
1.1734764571
1.1693143911
1.1706863543
1.1633831203
1.1669814241
1.1701488234
1.1725592710
1.1642915947
1.1740397878
1.1747715788
1.1746733861
1.1750777939
1.1741557555
1.1727369313
1.1677661594
1.1490160229
1.1405401702
1.1411323163
1.1486566582
1.1577660062
1.1455336784
1.1450767045
1.1524626925
1.1575081833
1.1523116168
1.1472730376
1.1423728327
1.1394566083
1.1412056473
1.1468520013
1.1559370945
1.1592723933
1.1596539242
1.1507495324
1.1558173784
1.1504804454
1.1418544272
1.1655899695
1.1698151179
1.1691486726
1.1748983467
1.1628760253
1.1753138707
1.1724180941
1.1541474572
1.1741435074
1.1755402474
1.1541284450
1.1720516836
1.1664995263
1.1741282557
1.1751794079
1.1674180241
1.1682341329
1.1707013431
1.1751389568
1.1712222130
1.1733919206
1.1746858978
1.1756583256
1.1752251410
1.1637568346
1.1731985226
1.1646840465
1.1748308692
1.1500290229
1.1776108026
1.1534608818
1.1579689906
1.1533065256
1.1422816351
1.1582476524
1.1472130317
1.1504184768
1.1466927643
1.1429376867
1.1778905113
1.1684079921
1.1596578665
1.1749210737
1.1483605020
1.1435826829
1.1786173905
1.1519625673
1.1709548412
1.1564149714
1.1516791513
1.1769183779
1.1769204659
1.1783589829
1.1412036509
1.1565528275
1.1600550798
1.1488290098
1.1649934090
1.1678473595
1.1719666997
1.1430986082
1.1742509222
1.1783219507
1.1441700944
1.1761557202
1.1730211058
1.1726551876
1.1757986642
1.1509149936
1.1760083987
1.1659934615
1.1632193740
1.1748129301
1.1754108016
1.1549315286
1.1748022499
1.1549207449
1.1668937217
1.1703210988
1.1696268134
1.1573924148
1.1757907916
1.1641606449
1.1717775855
1.1638061873
1.1763127025
1.1738441193
1.1534814806
1.1548494545
1.1556991854
1.1605415208
1.1678495996
1.1753595013
1.1593154052
1.1740344291
1.1620310062
1.1757081180
1.1755231435
1.1650410058
1.1686793312
1.1582919866
1.1712437985
1.1666233120
1.1753533446
1.1691888502
1.1513484679
1.1780028513
1.1767782186
1.1542185568
1.1760490382
1.1677875792
1.1659420758
1.1636429678
1.1483388949
1.1775338351
1.1787224929
1.1729224284
1.1770803929
1.1441516832
1.1776813383
1.1587185114
1.1702256587
1.1793064821
1.1756339265
1.1787067589
1.1726711917
1.1735499652
1.1799733400
1.1761925753
1.1772130588
1.1669312369
1.1700844669
1.1758636829
1.1498579494
1.1784514405
1.1696271627
1.1527978820
1.1696285637
1.1726811850
1.1742599762
1.1784739668
1.1764058345
1.1767253267
1.1430963304
1.1659415536
1.1571237037
1.1636431339
1.1802482066
1.1795494410
1.1734748684
1.1803535605
1.1454150119
1.1604863771
1.1526179062
1.1760274263
1.1556436563
1.1736322222
1.1713639665
1.1673024421
1.1621653991
1.1499846560
1.1764806897
1.1550938932
1.1754929161
1.1577275180
1.1636374417
1.1708277679
1.1815154707
1.1588572467
1.1461052899
1.1521722028
1.1530854437
1.1610386625
1.1513259300
1.1763614927
1.1816045543
1.1812777343
1.1760561273
1.1539829516
1.1723400696
1.1565251012
1.1717193145
1.1654344839
1.1822936125
1.1473060426
1.1534812183
1.1565434414
1.1538636973
1.1824012309
1.1746854832
1.1550383210
1.1787666170
1.1801082899
1.1580890993
1.1556995571
1.1605418280
1.1563599120
1.1691294368
1.1450894956
1.1630746756
1.1740269680
1.1539829782
1.1592670778
1.1766800738
1.1550943387
1.1677659862
1.1461031647
1.1772221652
1.1684287926
1.1468331205
1.1553176750
1.1592682271
1.1717988132
1.1709820230
1.1780172313
1.1531034484
1.1792915344
1.1576673298
1.1743320536
1.1656808076
1.1590815781
1.1775604157
1.1526181232
1.1750310267
1.1506218465
1.1499840399
1.1629959122
1.1473042179
1.1538640464
1.1450871769
1.1656808599
1.1610398742
1.1620715720
1.1592180179
1.1459349647
1.1606516498
1.1542278328
1.1557986408
1.1577284206
1.1613188248
1.1583736419
1.1802196592
1.1599754548
1.1519041258
1.1655431284
1.1479912935
1.1671548835
1.1607586564
1.1575565855
1.1791379559
1.1797108722
1.1576640906
1.1569813132
1.1795502417
1.1513258494
1.1641480511
1.1761938041
1.1563605337
1.1713637710
1.1757900909
1.1767314939
1.1564368762
1.1734729278
1.1791821928
1.1751454015
1.1677881125
1.1488564506
1.1642141533
1.1699525774
1.1766801563
1.1585001688
1.1553774193
1.1742604418
1.1787667107
1.1605031097
1.1721372694
1.1523284003
1.1772168870
1.1753539390
1.1696286189
1.1633875732
1.1770858911
1.1638943522
1.1573609644
1.1647039900
1.1640946150
1.1659425498
1.1599109158
1.1479898928
1.1820886996
1.1597417680
1.1637919701
1.1573295163
1.1815168670
1.1544340629
1.1729224362
1.1634494476
1.1638161952
1.1814938436
1.1767798139
1.1628663026
1.1638115244
1.1511487141
1.1808451240
1.1626818262
1.1699525700
1.1534279011
1.1761481069
1.1506212795
1.1564374177
1.1590824613
1.1531036974
1.1798295450
1.1689249454
1.1499549787
1.1468313358
1.1563172126
1.1649111618
1.1828205767
1.1479896775
1.1666282165
1.1638163437
1.1658160477
1.1662467871
1.1607595211
1.1553180828
1.1576648326
1.1519040922
1.1810998045
1.1833623407
1.1793259065
1.1742264789
1.1459329709
1.1646314927
1.1638957179
1.1593950280
1.1818084987
1.1799755908
1.1655431828
1.1637385638
1.1819212820
1.1682416476
1.1560779040
1.1501207606
1.1532276228
1.1690862464
1.1581280220
1.1609189720
1.1542281794
1.1798925814
1.1551462779
1.1492081649
1.1522012762
1.1778555956
1.1820705717
1.1837003963
1.1784360989
1.1646766926
1.1570486767
1.1511467027
1.1542059884
1.1833749876
1.1837534083
1.1629961180
1.1655096564
1.1632311818
1.1664889032
1.1813565098
1.1673109838
1.1671607197
1.1853094223
1.1845009896
1.1604209388
1.1615280242
1.1823022791
1.1629435266
1.1652281256
1.1682611765
1.1834917490
1.1848639273
1.1842206374
1.1625105060
1.1618625919
1.1671555174
1.1649209704
1.1656138283
1.1832455927
1.1842108690
1.1805538029
1.1820391366
1.1683701282
1.1849794216
1.1855789446
1.1645195422
1.1833620810
1.1823146473
1.1628674131
1.1860738498
1.1599759604
1.1843147348
1.1589869163
1.1596828021
1.1861079540
1.1626826094
1.1853454496
1.1846060320
1.1569817324
1.1838287255
1.1586905574
1.1614792147
1.1832255823
1.1833048123
1.1544546446
1.1487437775
1.1488006822
1.1487897477
1.1487292466
1.1477819617
1.1486663186
1.1455302993
1.1463128163
1.1506348033
1.1498390023
1.1506338141
1.1506243127
1.1480011909
1.1460966242
1.1482863241
1.1438418301
1.1463069164
1.1477766000
1.1455570268
1.1437305536
1.1463849474
1.1498358774
1.1477367838
1.1431536755
1.1448072736
1.1484652796
1.1454589548
1.1445002326
1.1459426720
1.1429823490
1.1463962193
1.1461752278
1.1511286131
1.1464555073
1.1487275394
1.1438382883
1.1435162038
1.1455503442
1.1498533922
1.1475644236
1.1501600047
1.1487757554
1.1522909001
1.1566599288
1.1470840963
1.1449334214
1.1499774536
1.1572326000
1.1484623972
1.1448038119
1.1517091697
1.1440845749
1.1445502146
1.1511250683
1.1501090331
1.1588982200
1.1474675535
1.1538771836
1.1463870277
1.1510641371
1.1487101041
1.1488317457
1.1586852175
1.1585206384
1.1464524016
1.1534327701
1.1526595509
1.1513836439
1.1573284997
1.1522801170
1.1516772953
1.1558375164
1.1553500262
1.1499746693
1.1552653454
1.1436855208
1.1566350373
1.1575796304
1.1567770814
1.1487660545
1.1529327435
1.1588992468
1.1703935507
1.1686529818
1.1488129563
1.1538750633
1.1553269568
1.1586742949
1.1533947039
1.1541842513
1.1513318815
1.1582244356
1.1568697242
1.1696523202
1.1685061772
1.1587469701
1.1538464491
1.1546148901
1.1575776164
1.1605492070
1.1611798386
1.1528884129
1.1641642226
1.1617476728
1.1566206270
1.1524197245
1.1623542745
1.1548800853
1.1540608920
1.1552634988
1.1647779963
1.1567769811
1.1574004100
1.1613792115
1.1624984453
1.1642895561
1.1632930585
1.1553232241
1.1525428330
1.1636023219
1.1554662830
1.1436834345
1.1623386734
1.1553243709
1.1582250319
1.1599113261
1.1587405352
1.1674489145
1.1594474927
1.1693606132
1.1705114273
1.1545421968
1.1686628270
1.1558559488
1.1613302877
1.1673100723
1.1601787037
1.1704031093
1.1694679709
1.1647101620
1.1635679079
1.1525166147
1.1658344662
1.1642963023
1.1625879320
1.1609429087
1.1617514077
1.1580389530
1.1535688983
1.1605513475
1.1554661273
1.1591209391
1.1562839608
1.1636424254
1.1623551253
1.1647786503
1.1511295507
1.1614160434
1.1633607197
1.1548589649
1.1628811820
1.1611827487
1.1619195434
1.1594749932
1.1611605254
1.1540330885
1.1658244594
1.1674577306
1.1596508663
1.1587346322
1.1601787861
1.1558847112
1.1594487625
1.1669606793
1.1683545849
1.1670003284
1.1662805169
1.1599941349
1.1728876077
1.1683891509
1.1582070549
1.1573258201
1.1658952987
1.1609880022
1.1603299266
1.1693737568
1.1678523591
1.1675598165
1.1598980832
1.1734925614
1.1614139457
1.1648531853
1.1721252063
1.1658354852
1.1633651566
1.1673683159
1.1591220250
1.1593297395
1.1711354181
1.1609461735
1.1648335830
1.1535492937
1.1685953363
1.1580252926
1.1712205850
1.1624915031
1.1636443014
1.1670021495
1.1734898050
1.1627622312
1.1658952625
1.1608270268
1.1650669625
1.1655874413
1.1582072727
1.1424791920
1.1603313533
1.1662868149
1.1572031544
1.1587544545
1.1678148574
1.1734421151
1.1668270581
1.1639416191
1.1597396287
1.1683672534
1.1408888515
1.1661757469
1.1558664452
1.1685954652
1.1634232893
1.1702090633
1.1421490826
1.1714874786
1.1669600087
1.1691398689
1.1657942053
1.1623722162
1.1720538468
1.1716718930
1.1728208025
1.1685357221
1.1707468801
1.1609756763
1.1679273894
1.1652515963
1.1711506386
1.1720037916
1.1638585274
1.1723426831
1.1701212858
1.1627637977
1.1424793324
1.1655936460
1.1697894647
1.1410105963
1.1702707866
1.1665888104
1.1411360494
1.1650372798
1.1617757590
1.1690657711
1.1393851133
1.1677151854
1.1421504061
1.1716701875
1.1689999436
1.1713689273
1.1431102679
1.1609759428
1.1691422618
1.1651492242
1.1392691021
1.1702253466
1.1709702190
1.1378775411
1.1717193869
1.1669643368
1.1694926954
1.1707486899
1.1631830418
1.1399368035
1.1601915766
1.1690090699
1.1728981878
1.1723416122
1.1697948790
1.1411757190
1.1716884953
1.1722097241
1.1687418323
1.1664322910
1.1701388208
1.1724316575
1.1417673184
1.1695790192
1.1709049526
1.1418714057
1.1422141078
1.1727041055
1.1679740224
1.1431137662
1.1378764636
1.1458137614
1.1392732119
1.1677238848
1.1735655003
1.1399357371
1.1379844581
1.1739432162
1.1676853788
1.1690813529
1.1384969267
1.1710729999
1.1478424513
1.1397413273
1.1615243560
1.1703392214
1.1412857717
1.1438950277
1.1703533034
1.1734875364
1.1383841531
1.1738434176
1.1687407514
1.1431443767
1.1718776425
1.1730542398
1.1672232154
1.1722093529
1.1722557779
1.1722473974
1.1737556915
1.1422554181
1.1411600703
1.1688992085
1.1418696094
1.1690237478
1.1411776877
1.1728955827
1.1601837519
1.1695776205
1.1729566500
1.1705456386
1.1716860187
1.1733849489
1.1400305055
1.1740033412
1.1368479591
1.1660473890
1.1397412535
1.1379837944
1.1729405968
1.1734098997
1.1739588414
1.1488728428
1.1736407621
1.1447376454
1.1381795084
1.1739406524
1.1412845562
1.1676929452
1.1376881069
1.1386361503
1.1727022770
1.1703514307
1.1500251057
1.1697754851
1.1466153082
1.1735623979
1.1372578899
1.1367595039
1.1727217814
1.1736256641
1.1411609984
1.1655652921
1.1730511450
1.1402160048
1.1422547762
1.1672298938
1.1358698978
1.1722522540
1.1738675959
1.1400242746
1.1705438217
1.1534327886
1.1641701934
1.1741619570
1.1511385148
1.1372569707
1.1729376419
1.1739465062
1.1376871408
1.1739564003
1.1697740557
1.1734860412
1.1361585315
1.1734068822
1.1660488501
1.1372474779
1.1742743574
1.1712545860
1.1379636724
1.1730179247
1.1556873608
1.1742208119
1.1367447581
1.1638086106
1.1742048657
1.1362585373
1.1354219990
1.1522328027
1.1742009850
1.1655657419
1.1371401062
1.1350984759
1.1402149619
1.1578343333
1.1741357502
1.1742349461
1.1392514533
1.1361570500
1.1372465308
1.1358358504
1.1742181881
1.1734826724
1.1378864159
1.1739113134
1.1544304603
1.1712526759
1.1742101101
1.1641663746
1.1357348457
1.1354249516
1.1742079478
1.1388905506
1.1599297899
1.1565640153
1.1743285761
1.1742032894
1.1352544474
1.1741341938
1.1741509257
1.1742507834
1.1624367080
1.1355495321
1.1741006959
1.1620873270
1.1389708339
1.1472456091
1.1404659012
1.1435308560
1.1586611201
1.1354233352
1.1604243121
1.1365413265
1.1512182384
1.1407151213
1.1392513396
1.1572147702
1.1359191345
1.1361098068
1.1739081245
1.1393716645
1.1371741737
1.1453618876
1.1418254811
1.1592056670
1.1491983879
1.1402840311
1.1552375220
1.1357333514
1.1366407357
1.1378854129
1.1743380369
1.1612522953
1.1607786243
1.1741493801
1.1727233664
1.1532416033
1.1742494577
1.1706702762
1.1642952255
1.1746743307
1.1740374622
1.1744039535
1.1677624953
1.1625223918
1.1734685993
1.1742514166
1.1717974079
1.1660717590
1.1745082326
1.1744294484
1.1746421885
1.1693038780
1.1563870692
1.1486555979
1.1422113947
1.1367952147
1.1523141420
1.1577666285
1.1407155979
1.1604224014
1.1404668535
1.1376166368
1.1608206510
1.1450751961
1.1405416771
1.1365399208
1.1501617010
1.1424481988
1.1461431938
1.1380029968
1.1543406049
1.1468499805
1.1418552477
1.1361082254
1.1504812465
1.1559391765
1.1391989678
1.1583944519
1.1596532351
1.1433845063
1.1385624980
1.1480912993
1.1418265281
1.1442893219
1.1371725790
1.1719230495
1.1541314349
1.1616415627
1.1646867302
1.1682343166
1.1712110658
1.1665205465
1.1744284833
1.1745864665
1.1751381360
1.1629618741
1.1744427833
1.1749599952
1.1733787845
1.1746802207
1.1522539971
1.1743367135
1.1735082048
1.1695880701
1.1708660451
1.1628758767
1.1665028036
1.1698095425
1.1724041303
1.1647282812
1.1740408261
1.1744015913
1.1748977314
1.1612525549
1.1746054534
1.1751785731
1.1741337499
1.1750267800
1.1728014737
1.1682073830
1.1500284196
1.1438652077
1.1394710129
1.1376153787
1.1422835419
1.1475827230
1.1569955333
1.1611644108
1.1466923465
1.1608214400
1.1439194125
1.1533074583
1.1582467590
1.1513633206
1.1422115990
1.1483595496
1.1435841506
1.1385608041
1.1401927893
1.1457421617
1.1551365059
1.1600531948
1.1450770513
1.1588725724
1.1433847938
1.1516794078
1.1565529641
1.1494587210
1.1407062614
1.1650415918
1.1701563928
1.1686814080
1.1747719505
1.1633826288
1.1753532870
1.1725749271
1.1549216217
1.1741641880
1.1750292111
1.1755865111
1.1757047514
1.1620176726
1.1532607043
1.1717722700
1.1669793906
1.1740255404
1.1750769084
1.1668962547
1.1686719741
1.1703199532
1.1750173424
1.1616437310
1.1756801246
1.1714576424
1.1734727121
1.1746578106
1.1757951150
1.1754079951
1.1632174579
1.1730129141
1.1651854011
1.1748049995
1.1749601779
1.1780000718
1.1702255853
1.1615373949
1.1760492238
1.1490172407
1.1438646922
1.1778691764
1.1785638049
1.1542185842
1.1696005011
1.1587170198
1.1524611944
1.1758629791
1.1775331555
1.1784353664
1.1411304888
1.1575080913
1.1611671770
1.1483392776
1.1513481940
1.1455343597
1.1666230609
1.1662231581
1.1735502661
1.1441538751
1.1730484914
1.1777197656
1.1456276836
1.1777598083
1.1688949469
1.1604843054
1.1751645278
1.1472745375
1.1423714312
1.1775048719
1.1788368188
1.1527977958
1.1713682796
1.1571229560
1.1507494786
1.1767835141
1.1769645826
1.1780131479
1.1401909277
1.1558159583
1.1592736160
1.1468364066
1.1498577663
1.1450764428
1.1653635297
1.1674794981
1.1723858952
1.1419976956
1.1745639926
1.1782667757
1.1454168943
1.1574786630
1.1763562370
1.1624676917
1.1732096437
1.1631810723
1.1762676162
1.1723387518
1.1756600633
1.1521727365
1.1530284020
1.1549826877
1.1760518818
1.1565247228
1.1606824295
1.1654334863
1.1756847105
1.1637576447
1.1595632882
1.1748393589
1.1626766432
1.1752268225
1.1556434694
1.1746816039
1.1541453907
1.1674156682
1.1707049117
1.1589304833
1.1691307334
1.1580885626
1.1760223442
1.1636351188
1.1720599394
1.1637918323
1.1764760031
1.1736292081
1.1755894391
1.1513132232
1.1522132864
1.1558323601
1.1763775950
1.1566188111
1.1608232354
1.1673028730
1.1753192644
1.1620206914
1.1597412931
1.1741391847
1.1621651322
1.1755419907
1.1754888074
1.1655885297
1.1691480822
1.1588567187
1.1708283185
1.1670780623
1.1792906665
1.1754889580
1.1769943542
1.1684288339
1.1696008004
1.1717987152
1.1745992376
1.1504190529
1.1778014639
1.1773762365
1.1767331332
1.1777984162
1.1680595225
1.1534603120
1.1761926723
1.1683236941
1.1662233772
1.1706974952
1.1638785253
1.1712966216
1.1472128061
1.1774868285
1.1784387384
1.1732612162
1.1791376457
1.1761920254
1.1775605132
1.1768499435
1.1429357168
1.1646765233
1.1777201737
1.1579701570
1.1649936964
1.1659421291
1.1802180826
1.1797095450
1.1706971594
1.1750309762
1.1796182954
1.1758631966
1.1785653084
1.1802428942
1.1456265010
1.1615407905
1.1730486036
1.1738893229
1.1787193440
1.1684087462
1.1798881912
1.1762338530
1.1776812755
1.1770290462
1.1671736119
1.1678474136
1.1704260669
1.1760813644
1.1488295385
1.1778733605
1.1783713069
1.1771151927
1.1693159486
1.1519625835
1.1769208986
1.1701294557
1.1648432796
1.1648431657
1.1729812885
1.1468351922
1.1778924672
1.1786198407
1.1744967249
1.1784967574
1.1766018715
1.1764528046
1.1419956566
1.1664685116
1.1726710713
1.1769185916
1.1564150860
1.1638789443
1.1798275428
1.1793939514
1.1719670419
1.1737939351
1.1792747836
1.1745638210
1.1782675512
1.1806095966
1.1441683161
1.1596601118
1.1713680553
1.1749211656
1.1517770615
1.1757940522
1.1808449582
1.1815161689
1.1763820119
1.1549309532
1.1530851960
1.1738501278
1.1566192465
1.1734729150
1.1717951738
1.1678482274
1.1620311934
1.1820879362
1.1474465944
1.1530280924
1.1489162137
1.1763165549
1.1581445163
1.1543928546
1.1819208640
1.1755290173
1.1549567203
1.1775848050
1.1808074434
1.1574792267
1.1548496237
1.1609669297
1.1609672379
1.1570000862
1.1641621776
1.1712448660
1.1811523560
1.1582925424
1.1618080702
1.1448509080
1.1509141757
1.1642133829
1.1726336224
1.1539948047
1.1557650381
1.1601224841
1.1542766817
1.1780347100
1.1503757924
1.1761597653
1.1814935767
1.1810931489
1.1760132047
1.1530286020
1.1726591092
1.1558326763
1.1720821244
1.1659933090
1.1618083502
1.1818076573
1.1460560585
1.1522127357
1.1486244379
1.1762717219
1.1573604517
1.1531099478
1.1821223588
1.1748087320
1.1539947398
1.1788864044
1.1800840669
1.1573930070
1.1549829830
1.1608236156
1.1566389933
1.1556686159
1.1624704208
1.1696257343
1.1812624068
1.1589310202
1.1439261955
1.1513124001
1.1540544457
1.1620353637
1.1744227142
1.1519484815
1.1549565910
1.1584610086
1.1768690043
1.1633118193
1.1474451708
1.1543929133
1.1680595498
1.1448489115
1.1773762218
1.1669312263
1.1620373284
1.1627727806
1.1687350804
1.1605015778
1.1481006728
1.1619298164
1.1794720103
1.1560070644
1.1721440722
1.1552480079
1.1584623329
1.1611890166
1.1721442133
1.1723857268
1.1712966822
1.1584059855
1.1774857101
1.1775104858
1.1677659854
1.1653642282
1.1794734791
1.1597482690
1.1538652240
1.1792907877
1.1769661639
1.1664070122
1.1564632448
1.1670774812
1.1492908450
1.1745993047
1.1742511101
1.1658400440
1.1658095719
1.1787054127
1.1627328507
1.1587881749
1.1776161033
1.1804141948
1.1674794320
1.1776730159
1.1805580882
1.1599852107
1.1569615800
1.1776728860
1.1790704495
1.1517773314
1.1638527108
1.1752979902
1.1516132275
1.1489155693
1.1783219896
1.1632476314
1.1460541697
1.1531101166
1.1666757918
1.1439240793
1.1760813569
1.1658401058
1.1743320046
1.1601241556
1.1625562779
1.1700845308
1.1603923476
1.1471353196
1.1615275910
1.1549304684
1.1569170297
1.1570008076
1.1620124748
1.1691888271
1.1734750787
1.1696271835
1.1596822402
1.1783622326
1.1792913927
1.1796201389
1.1610091377
1.1527664330
1.1784514382
1.1652954948
1.1584093589
1.1492211075
1.1729813458
1.1805567908
1.1666757494
1.1666738313
1.1617869482
1.1589863281
1.1798885535
1.1803547376
1.1584599901
1.1584313912
1.1784740292
1.1802435959
1.1503758174
1.1641509040
1.1764058563
1.1504162215
1.1486231587
1.1762366150
1.1556688484