<VTKFile type="UnstructuredGrid" version="0.1">
	<UnstructuredGrid>
		<Piece NumberOfPoints="1862" NumberOfCells="3498">
			<CellData>
				<DataArray type="Int32" Name="type" NumberOfComponents="1" Format="ascii">
0
0
0
0
0
0
0
0
0
0
0
0
0
0
0
0
1
0
0
1
0
0
0
0
0
0
0
0
0
0
0
0
0
1
0
0
0
0
0
0
0
0
0
0
0
0
0
0
0
0
1
0
0
0
0
0
0
0
0
0
0
1
0
0
0
0
0
0
0
0
0
0
0
0
0
0
0
0
0
0
0
0
0
0
0
0
0
0
0
0
0
0
0
0
0
0
0
0
0
0
0
0
0
0
0
0
0
0
0
0
0
0
0
0
0
0
0
0
0
0
0
0
0
1
0
0
0
0
0
0
0
0
0
0
0
0
0
0
0
0
0
0
0
0
0
0
0
0
0
0
0
1
0
1
1
0
0
0
0
0
0
0
0
0
0
0
0
0
1
0
1
0
0
0
0
1
0
0
0
0
0
0
0
0
1
1
0
0
0
0
0
1
0
0
0
0
0
0
0
0
1
0
0
0
0
0
0
0
0
0
0
0
0
0
0
0
0
0
0
0
0
0
0
0
0
0
0
0
0
0
0
0
0
1
0
0
0
0
0
0
0
0
0
0
0
0
0
0
0
0
0
0
0
0
0
0
0
0
0
0
0
0
0
0
0
0
0
0
0
0
0
0
0
0
0
0
0
0
0
0
0
1
0
0
0
0
0
0
0
0
0
0
0
0
0
0
0
0
0
0
0
0
0
0
0
0
0
0
0
0
0
0
0
0
0
0
0
0
0
0
0
0
0
0
0
0
0
0
0
0
0
0
1
0
0
0
0
0
0
0
0
0
0
0
0
0
0
0
0
0
0
0
0
0
0
0
0
0
0
0
0
0
0
0
0
0
0
0
0
0
0
0
0
0
0
0
0
0
0
0
0
0
0
0
0
0
0
0
0
0
1
0
0
0
0
0
0
0
0
0
0
0
0
0
0
0
0
0
0
0
0
0
0
0
0
0
0
0
0
0
0
0
0
0
0
0
0
0
0
0
0
0
0
0
0
0
0
0
0
0
0
0
0
0
0
0
0
0
0
0
0
0
0
0
0
0
0
0
0
0
0
0
0
0
0
0
0
0
0
0
0
0
0
0
0
0
0
0
0
0
0
0
0
0
0
0
0
0
0
0
0
0
0
0
0
0
0
0
0
0
0
0
0
0
0
0
0
0
0
0
0
0
0
0
0
0
0
0
0
0
0
0
0
1
0
0
0
0
0
0
0
0
0
0
0
0
0
0
0
0
0
0
0
1
0
0
0
0
0
0
0
0
0
0
0
0
0
0
0
0
0
0
0
0
0
0
0
0
0
0
0
0
0
0
0
0
0
0
0
0
0
0
0
0
0
0
0
0
0
0
0
0
0
0
0
0
0
1
0
0
0
0
0
0
0
0
0
0
0
0
0
0
0
0
0
0
0
0
0
0
0
1
0
0
0
0
0
0
0
0
0
0
0
0
0
0
0
0
0
0
0
1
0
0
0
1
0
0
0
0
0
0
0
0
0
0
0
0
0
0
0
0
0
0
0
0
0
0
0
0
0
1
0
0
0
0
0
0
0
1
0
0
0
0
0
0
0
0
0
0
0
0
0
0
0
0
0
0
0
0
0
0
0
0
0
0
1
0
0
0
0
0
0
0
1
0
0
0
0
0
0
1
0
0
0
0
0
0
0
0
0
0
0
0
0
0
0
0
0
0
0
0
0
0
0
0
0
0
0
0
0
0
0
0
0
0
0
0
0
0
1
0
0
0
0
0
1
0
0
0
0
0
0
0
1
0
0
0
0
0
0
0
0
0
0
0
0
0
1
0
0
0
0
0
0
0
0
0
0
0
0
0
0
0
0
0
0
0
0
0
0
0
0
0
0
0
0
0
0
0
0
0
0
0
0
0
0
0
0
0
0
0
0
0
0
0
0
0
0
0
0
0
1
0
0
0
0
0
0
0
0
0
0
0
0
0
0
0
0
0
0
0
1
0
0
0
0
0
0
0
0
0
1
0
0
0
0
0
0
0
0
0
0
0
0
0
0
0
0
0
0
0
0
0
0
0
0
0
0
0
0
0
1
0
1
0
0
0
0
0
0
0
0
0
0
0
0
0
0
0
0
0
0
0
0
0
0
0
0
0
0
0
1
0
0
0
1
0
0
0
0
0
0
0
0
0
0
0
0
0
0
0
0
0
0
0
0
0
0
0
0
0
0
0
0
1
0
0
0
0
0
0
0
0
0
0
0
0
0
0
0
0
0
0
0
0
0
0
0
0
0
1
0
0
0
0
0
0
0
0
0
0
0
0
0
0
0
0
0
0
0
0
0
0
0
1
0
0
0
0
0
0
1
0
0
0
0
0
0
0
0
0
0
0
1
0
0
0
0
0
0
0
0
0
0
0
0
0
0
0
0
0
0
0
0
1
0
0
0
0
0
0
0
0
0
0
0
1
0
0
0
0
0
0
0
0
0
0
0
0
0
0
0
0
0
0
0
0
0
1
0
0
0
0
0
0
0
0
0
1
1
0
1
0
1
0
0
0
0
0
0
0
0
0
0
0
1
0
0
0
0
0
1
1
0
0
0
0
0
0
1
0
0
0
0
0
1
1
1
0
0
0
0
0
0
0
0
0
0
0
0
1
1
0
0
1
0
0
0
0
0
1
0
0
0
1
0
1
0
0
0
0
0
0
0
1
0
0
0
0
0
0
0
1
0
0
1
0
0
0
0
0
0
0
0
0
0
0
0
0
0
0
1
0
0
0
0
0
0
0
0
0
0
0
0
0
0
0
0
0
0
0
0
0
0
0
0
0
0
0
0
0
0
0
0
0
0
0
0
1
0
0
0
0
0
0
1
0
0
0
1
0
0
0
0
0
0
0
0
0
0
0
1
0
0
0
0
0
0
0
0
0
0
0
0
0
0
0
0
0
0
0
0
0
0
0
0
0
0
0
0
0
0
0
0
0
0
0
0
0
0
0
0
1
1
0
0
0
0
0
0
0
0
0
0
0
0
0
1
0
0
0
0
0
0
0
0
0
0
0
0
0
0
0
0
0
0
0
0
0
0
0
0
0
0
0
0
0
0
0
0
0
0
0
0
0
0
0
0
0
0
0
0
0
0
0
0
0
0
0
0
0
0
0
0
0
0
0
0
0
0
0
0
0
0
0
0
0
0
0
0
1
1
0
0
0
0
0
0
0
0
1
0
0
0
0
0
0
0
0
0
0
0
0
0
0
0
0
0
0
0
0
0
0
0
1
0
0
0
0
0
0
0
0
0
0
0
0
0
0
0
0
1
0
0
0
0
0
0
0
0
0
0
0
0
0
0
0
0
0
0
0
0
0
0
0
0
0
0
0
0
0
0
0
0
0
0
0
0
0
0
0
0
0
0
0
0
0
0
0
0
0
0
0
0
0
0
0
0
0
0
0
0
0
0
0
0
0
0
0
0
0
0
0
0
0
0
0
0
0
0
0
0
0
0
0
0
0
0
0
0
0
0
1
1
0
0
0
0
0
1
0
0
0
0
0
0
0
0
0
0
0
0
1
0
0
0
0
0
0
0
0
0
0
0
0
0
0
0
0
0
0
0
0
0
0
0
0
0
0
0
0
0
0
0
0
0
0
0
0
0
0
0
0
0
0
0
0
0
0
0
0
0
0
0
0
0
1
0
1
0
0
0
0
0
0
0
0
0
0
0
0
0
0
0
0
0
0
1
0
0
0
0
0
0
0
0
0
0
0
0
0
0
0
0
0
0
0
0
0
0
0
0
0
0
0
0
0
0
0
0
0
0
0
0
0
0
0
0
0
0
0
0
0
0
0
0
0
0
0
0
0
0
0
0
0
0
0
0
0
0
0
0
0
0
0
0
0
0
1
0
0
0
0
0
0
0
0
0
0
1
0
0
0
0
0
0
0
0
0
0
0
0
0
0
0
0
0
0
0
0
0
0
0
0
0
0
0
0
0
0
0
0
0
0
0
0
0
1
0
0
0
0
0
0
0
0
0
0
0
0
0
0
0
0
0
0
0
0
0
0
0
0
0
0
0
0
0
0
0
0
0
0
0
0
0
0
0
0
0
0
0
0
0
0
0
0
0
0
0
0
0
0
0
0
0
0
0
0
0
0
0
0
0
0
0
0
0
0
0
0
0
0
0
0
0
0
0
0
0
1
0
0
0
0
0
0
0
0
0
0
0
0
0
0
0
0
0
0
0
0
0
0
0
0
0
0
0
0
0
0
0
0
0
0
0
0
0
0
0
0
0
0
0
0
0
0
0
0
0
0
0
0
0
0
0
0
0
0
0
0
0
0
0
0
0
0
0
0
0
0
0
0
0
0
0
0
0
0
0
0
0
0
0
0
0
0
0
0
0
0
0
0
0
0
0
0
0
0
0
0
0
0
0
0
0
0
0
0
0
0
0
0
0
0
0
0
0
0
0
0
0
0
0
1
0
0
0
0
0
0
0
0
0
0
0
0
0
0
0
0
0
0
0
0
0
0
0
0
0
0
0
0
0
0
0
0
0
0
0
0
0
0
0
0
0
0
0
0
0
0
0
0
0
0
0
0
0
0
0
0
0
0
0
0
0
0
0
0
0
0
0
0
0
0
0
0
0
0
0
0
0
0
0
0
0
1
0
0
0
0
0
0
0
1
0
0
0
0
0
0
0
0
0
0
0
0
0
0
0
0
0
0
0
0
0
0
0
0
0
0
0
0
0
0
0
0
0
0
0
0
0
1
0
0
0
0
0
0
0
0
0
0
0
0
0
0
0
0
0
0
0
0
0
1
0
0
0
0
0
0
0
0
0
0
0
0
1
1
0
0
0
0
0
0
0
0
0
0
0
0
0
0
0
1
1
0
1
0
0
0
0
0
0
0
0
0
1
0
0
0
0
0
0
1
0
0
0
0
0
0
0
0
0
0
1
0
0
0
0
1
0
1
0
0
0
0
0
0
0
1
0
0
0
1
0
0
0
1
0
1
1
0
0
1
1
0
0
0
1
0
0
0
1
0
0
0
0
0
0
0
0
0
1
0
0
0
0
0
0
1
0
0
0
0
0
0
0
0
0
0
0
0
0
0
0
0
0
0
0
0
0
0
0
0
0
0
0
1
0
0
1
0
0
0
0
0
0
0
0
0
0
0
0
0
0
0
0
0
0
1
0
0
1
0
0
0
0
0
0
0
0
0
0
0
1
0
0
1
0
0
0
0
0
0
0
0
0
0
0
1
1
0
0
0
0
0
0
0
0
0
0
0
0
1
0
0
0
0
0
0
0
0
0
0
0
0
0
0
0
0
0
1
0
0
0
0
0
0
0
0
0
0
0
0
0
0
0
0
0
1
0
0
0
0
0
0
0
0
0
0
0
0
0
0
0
0
0
0
0
0
0
0
0
0
0
0
0
0
0
0
0
0
0
0
0
0
0
0
0
0
1
0
0
0
0
0
0
0
0
0
0
0
0
0
0
0
0
0
0
0
0
0
0
0
0
0
0
0
0
0
0
0
0
0
0
0
0
0
0
0
0
0
0
0
0
0
1
0
0
0
0
0
0
0
0
0
0
0
0
0
0
0
0
0
0
0
0
0
0
0
0
0
0
0
0
0
0
0
0
0
0
0
0
0
0
0
0
0
0
0
0
0
0
0
1
0
0
0
0
0
0
0
0
0
0
1
0
0
0
0
0
0
0
0
0
0
0
0
0
0
0
1
0
0
1
0
0
0
0
0
0
0
0
0
0
0
0
0
0
0
0
0
0
0
0
0
0
0
1
0
0
0
0
0
0
0
0
0
0
0
0
0
0
0
0
0
0
0
0
0
0
0
0
0
0
0
0
0
0
0
0
0
0
0
1
0
0
0
0
0
0
0
0
0
0
0
0
0
0
0
0
0
0
0
0
0
0
0
0
0
0
0
0
0
0
0
0
0
0
0
0
0
0
0
0
0
0
0
0
0
0
0
0
0
0
0
0
0
0
0
0
0
0
0
0
0
0
0
0
0
0
0
0
0
0
0
0
0
0
0
0
1
0
0
0
0
0
0
0
0
0
0
0
0
0
0
0
0
0
0
0
0
0
0
0
0
0
0
0
0
0
0
0
0
0
0
0
0
0
0
0
1
0
0
0
0
0
0
0
0
0
0
0
0
1
1
0
0
0
0
0
0
0
0
0
0
0
0
0
0
0
0
0
0
0
0
0
0
0
0
0
0
0
0
0
0
0
0
0
0
0
0
0
0
0
0
0
0
0
0
0
0
0
0
0
0
0
0
0
0
0
0
0
0
0
0
0
0
0
0
0
0
0
0
0
0
0
0
0
0
0
0
0
0
0
0
0
0
0
0
0
0
0
0
0
0
0
0
0
0
0
0
0
0
0
0
0
1
0
1
0
0
0
0
0
0
0
1
1
1
1
0
0
0
0
0
0
0
0
0
0
0
0
0
0
0
0
0
0
0
0
0
0
0
0
0
0
0
0
1
1
0
0
0
0
0
0
0
0
0
0
0
0
0
0
0
0
0
0
1
0
0
0
0
0
0
0
1
1
0
1
1
0
0
1
0
0
0
0
0
0
0
1
0
1
0
0
0
0
0
0
0
0
0
0
0
0
0
0
0
0
0
0
0
0
0
0
0
0
0
0
0
1
1
0
0
0
1
1
0
0
0
0
1
0
0
1
0
1
0
0
0
0
0
1
0
0
0
1
0
0
0
0
0
0
0
0
0
0
0
0
0
0
0
0
0
0
0
0
0
0
0
0
0
0
0
1
0
0
0
0
0
0
1
0
0
0
0
0
0
0
0
0
0
0
0
0
0
0
0
0
0
0
0
0
0
0
0
0
0
0
0
0
1
0
1
0
0
0
0
0
0
0
1
0
0
0
0
0
0
0
0
0
0
0
1
0
0
0
0
0
0
0
0
0
1
0
0
0
0
0
0
0
1
0
0
0
0
0
0
0
1
0
0
0
0
0
0
0
0
0
0
0
0
0
0
0
0
0
0
0
1
0
1
0
0
0
0
0
1
0
0
0
0
0
0
0
0
0
0
0
0
0
0
0
0
0
0
0
0
0
0
0
0
0
1
0
1
0
0
0
0
0
0
0
0
0
1
0
0
0
0
0
1
0
0
0
0
0
0
0
0
0
0
0
0
0
0
0
1
0
0
0
0
0
0
0
0
1
0
0
0
0
0
0
0
0
0
0
0
0
0
0
0
0
0
0
0
0
0
0
0
0
0
0
0
0
0
0
1
0
0
0
0
0
0
0
0
0
0
0
0
0
0
0
0
1
0
0
0
0
0
0
0
0
1
0
0
0
0
0
0
0
0
0
1
0
0
0
0
0
1
0
0
0
0
0
0
0
0
0
0
0
0
0
0
0
0
0
0
0
1
0
0
0
0
0
0
1
0
0
0
0
0
0
0
0
1
0
0
0
0
0
0
0
0
0
0
0
0
0
0
1
0
0
1
0
0
0
1
0
0
0
0
0
0
0
0
0
0
0
0
0
0
0
0
1
0
0
0
0
0
0
0
0
0
0
1
0
1
0
0
0
0
0
0
1
0
0
0
0
0
0
0
0
0
0
0
0
0
0
0
0
0
0
0
0
0
0
0
0
0
0
0
1
1
0
0
0
0
0
0
1
0
0
0
0
0
0
0
0
0
0
0
0
0
1
0
0
0
0
0
0
0
1
0
0
0
0
0
0
0
0
0
0
0
0
0
0
0
0
0
0
0
0
0
0
0
0
0
0
0
1
0
0
0
0
0
0
0
0
0
0
1
0
0
1
0
0
0
0
0
0
0
0
0
0
0
0
0
0
0
0
0
0
0
0
0
0
0
0
0
0
0
0
0
1
0
0
0
0
0
0
0
1
0
0
0
0
0
0
0
1
0
0
0
0
1
0
0
0
0
0
0
0
0
0
0
0
1
0
1
0
0
0
1
0
				</DataArray>
				<DataArray type="Float64" Name="h" NumberOfComponents="1" Format="ascii">
1.2086275207
1.2086438286
1.2053435188
1.2087646027
1.2045820933
1.2059820984
1.2068324675
1.2103050805
1.2082555188
1.2129349151
1.2099709573
1.2065962464
1.2094879117
1.2112989470
1.2098648826
1.2112143432
1.2080181026
1.2120045569
1.2085291803
1.2104817190
1.2041350226
1.2086345006
1.2057663914
1.2032744571
1.2091602781
1.2125705282
1.2057494596
1.1975615865
1.2041025994
1.2122462574
1.2115453163
1.2056459215
1.2086492299
1.2055068434
1.1977296708
1.2020828174
1.2011283473
1.2043112925
1.1968476299
1.2028159597
1.2037625306
1.1974120879
1.2057767264
1.2026750025
1.2016753684
1.1992530294
1.2042103797
1.1961474188
1.1780470761
1.1802681592
1.2026699163
1.2008190298
1.2024731165
1.1903881430
1.1986914500
1.2040634766
1.1991541348
1.1924104109
1.1907463416
1.1915764457
1.1872872072
1.1890935355
1.1793135345
1.2005420225
1.2007367403
1.1940938194
1.1822566036
1.1816137794
1.1890555082
1.1909250461
1.1903260399
1.1984343576
1.2026534709
1.1884479866
1.1896203155
1.1934186317
1.1920360879
1.1871033118
1.1939562338
1.1951078375
1.1837056515
1.1924927742
1.1712856781
1.1836358351
1.1964915224
1.1921433730
1.1821916545
1.1852830735
1.1858265054
1.1733454903
1.1809446590
1.1934254328
1.1852871912
1.1754984925
1.1907481158
1.1921920144
1.1873217866
1.1961838611
1.1950988334
1.1820222918
1.1728778126
1.1838069508
1.1890591172
1.1943653482
1.2150371865
1.1840361968
1.1889626783
1.1762134021
1.1873699257
1.1907016325
1.1771955283
1.1750399525
1.1829298063
1.1801566063
1.1870844295
1.1743607501
1.1889424403
1.2145181938
1.1763767273
1.1849952972
1.2148625546
1.1871108846
1.1903208917
1.2170591024
1.1822263289
1.1757165972
1.1869081411
1.2175104619
1.1756981535
1.1737100097
1.1773321623
1.1889500390
1.1846876615
1.1739620918
1.2144343804
1.1776471807
1.2138832083
1.1728859946
1.1803708854
1.2094903819
1.2179586581
1.2158836280
1.1755474370
1.2068960944
1.1904043816
1.1789932231
1.2116942170
1.1692552864
1.2163917551
1.1678144082
1.2145858743
1.1724047629
1.1714424519
1.1679492423
1.1819418692
1.1716049729
1.1692536414
1.2162463312
1.1682275375
1.2197758833
1.2080326920
1.1696783176
1.2124284617
1.2181651233
1.2169495794
1.1711845718
1.2039648910
1.2106099582
1.2187949000
1.1705561374
1.1699854906
1.2200070854
1.1684889350
1.2166814819
1.2022050658
1.1668286399
1.2052307450
1.1679834742
1.1670587687
1.2183878778
1.1719384904
1.1990767950
1.2198206399
1.1885869516
1.2199673908
1.2214814576
1.2009022025
1.1673288226
1.2194966832
1.2222439946
1.1959142066
1.1671084202
1.2209983373
1.1977944470
1.1670295718
1.1690874569
1.2174859962
1.1927701295
1.1946465038
1.1666217011
1.2222737281
1.1872129884
1.2218152059
1.1669867535
1.1896662770
1.2193912399
1.2103640605
1.2145425416
1.1914839667
1.2050233046
1.1956696477
1.2211090259
1.2184214314
1.2202809747
1.2125801900
1.1924578754
1.2078244378
1.2180238571
1.1988644621
1.2202662683
1.1883772653
1.1743560919
1.2020010109
1.1783254296
1.1855637742
1.1666814148
1.1704378124
1.1823541034
1.1866507259
1.1723343208
1.1668693369
1.1763831381
1.1841738518
1.1663962313
1.1675054270
1.1802585280
1.1937222468
1.2086051349
1.2210462499
1.2029120766
1.1932741298
1.2131513043
1.2182893331
1.2032353010
1.2133713251
1.2089090552
1.2188903719
1.1969327749
1.2110427261
1.2167860687
1.2058736371
1.1965418045
1.2172705134
1.1905576270
1.1900519828
1.2192453299
1.2061758342
1.2112943620
1.2202823542
1.1767345544
1.1997771314
1.1837524985
1.1811463473
1.1774774750
1.1841390505
1.1677153830
1.1664220491
1.1862666787
1.1663477383
1.1736433998
1.1699577046
1.2001303219
1.1727242867
1.1805905299
1.1786529679
1.1845943909
1.1826220718
1.1793611329
1.1755758741
1.1853519092
1.1708088067
1.1661298073
1.1667694744
1.1672040657
1.1717379880
1.1747335905
1.1825354565
1.2065384574
1.2176637083
1.2169229140
1.2069602961
1.1912902005
1.2114597904
1.2118925355
1.2005459512
1.1906909628
1.2009978997
1.2091577606
1.2152936044
1.2192463687
1.2179190839
1.2095779446
1.1945242787
1.1875229986
1.1881628279
1.2036476363
1.1939823575
1.2040749087
1.2159060355
1.1818796426
1.1795339966
1.1797900493
1.1660405499
1.1840602329
1.1694280645
1.1758677764
1.1972976337
1.1720739432
1.1660995740
1.1977877326
1.1765633667
1.1824325038
1.1729153295
1.1673656635
1.1809930129
1.1811466641
1.1782789078
1.1664628092
1.1777361036
1.1739683872
1.1702737284
1.1668361478
1.1658176786
1.1825079599
1.1747543613
1.1833810243
1.1711092250
1.2047460281
1.1647657427
1.1979717443
1.1880664922
1.1985299833
1.2161829916
1.1887442238
1.2094481135
1.2042074094
1.2100409028
1.2152847660
1.1664534112
1.1762033797
1.1850374432
1.1721757237
1.2075324425
1.2143175445
1.1647988588
1.2011844583
1.1746356933
1.1913079607
1.2017233812
1.1697729438
1.1692097775
1.1637174125
1.2179194759
1.1919469990
1.1857274896
1.2069775321
1.1774942039
1.1762325510
1.1746227345
1.2163100817
1.1726131484
1.1670779315
1.2135422328
1.1657158673
1.1749857559
1.1755711589
1.1669500386
1.2059755042
1.1688550778
1.1800449046
1.1818936831
1.1713925870
1.1656891742
1.1946470945
1.1721581927
1.1952409761
1.1806680366
1.1783105176
1.1783742983
1.1904060981
1.1654517125
1.1805383849
1.1767243010
1.1796308228
1.1664073732
1.1738944478
1.2039970934
1.1974710358
1.1951692519
1.1832342711
1.1793516984
1.1696928641
1.1854909759
1.1731838131
1.1812655094
1.1660944964
1.1704476525
1.1813889151
1.1796470816
1.1879253973
1.1770956669
1.1768070775
1.1715508605
1.1754274097
1.2022992094
1.1653844921
1.1684333514
1.1959132768
1.1707096736
1.1774155177
1.1771729349
1.1784593890
1.2078781245
1.1677515674
1.1640672230
1.1745376807
1.1651784675
1.2144390737
1.1684711517
1.1862573543
1.1755096516
1.1636192658
1.1713277984
1.1658188101
1.1737157766
1.1734989945
1.1658140294
1.1699598084
1.1659535772
1.1773378216
1.1751072163
1.1715131711
1.2052153673
1.1683707636
1.1758932263
1.1991750800
1.1767142338
1.1739928632
1.1731081994
1.1677915801
1.1706315311
1.1648138395
1.2163098838
1.1779389078
1.1893461219
1.1784598639
1.1625301691
1.1651906804
1.1731059196
1.1635639990
1.2124504802
1.1834410454
1.1996984398
1.1652818170
1.1926021524
1.1740577340
1.1757566105
1.1789492450
1.1818699833
1.2054530933
1.1664761998
1.1932954949
1.1706834664
1.1869318600
1.1799512072
1.1770187089
1.1623320985
1.1882877235
1.2124108039
1.2046163479
1.2021978360
1.1815296652
1.2026850741
1.1656652751
1.1648745157
1.1640420721
1.1690744788
1.1998052663
1.1756363683
1.1951700114
1.1753565938
1.1795172562
1.1614545322
1.2102881780
1.2039995153
1.1928300986
1.1965434223
1.1625428680
1.1723753162
1.1990473126
1.1696537391
1.1667224348
1.1905708828
1.1951716450
1.1832354329
1.1900526722
1.1781315756
1.2144180465
1.1794081241
1.1742204834
1.1998029126
1.1840560506
1.1713142491
1.1932984374
1.1777203115
1.2124101722
1.1701203226
1.1761259287
1.2111814477
1.1927367454
1.1840574437
1.1741393681
1.1751464490
1.1639916681
1.1990495763
1.1671963040
1.1962193355
1.1728001605
1.1788734600
1.1835814460
1.1692222412
1.1997007738
1.1719380282
1.2046344204
1.2054533782
1.1842450216
1.2102873419
1.1965463128
1.2144177200
1.1788738351
1.1815304466
1.1863263931
1.1929583766
1.2131289798
1.1903146653
1.1959485157
1.2007437608
1.1869338871
1.1884084840
1.1936467615
1.1630101689
1.1918689026
1.2019625837
1.1805413217
1.2092026406
1.1790082322
1.1811182503
1.1942819986
1.1664154563
1.1641842544
1.1864206753
1.1956532105
1.1651877825
1.2026864489
1.1822897074
1.1699498593
1.1900552613
1.1757544827
1.1728047377
1.1648129283
1.1895181428
1.1740747634
1.1682532358
1.1727383550
1.1774126170
1.2087103907
1.1784325711
1.1766452615
1.1713138021
1.1847276444
1.1935473354
1.1731029817
1.1696532690
1.1923635923
1.1755298065
1.2019687288
1.1659511373
1.1715422211
1.1767116418
1.1923538000
1.1651779663
1.1859144385
1.1927411854
1.1826692442
1.1949455679
1.1779366232
1.1822216137
1.2107854186
1.1618472851
1.1859888145
1.1802272378
1.1875399652
1.1630354549
1.1965067460
1.1745348330
1.1951193979
1.1905219721
1.1644850963
1.1684240980
1.1794600956
1.1928141334
1.2043999945
1.1658947623
1.1883005790
1.1766453408
1.1993293408
1.1728773031
1.2046355661
1.1895204178
1.1835830541
1.1990518964
1.1628104263
1.1776084809
1.2066304386
1.2111815028
1.1905236068
1.1848511066
1.1637627150
1.2092026602
1.1980816109
1.1905224134
1.1918522270
1.1979773394
1.1811192946
1.1927391868
1.1864226824
1.2019644477
1.1670244041
1.1624605097
1.1696058942
1.1742875891
1.2131292582
1.1936885636
1.1879057631
1.1836914752
1.1616634111
1.1674410845
1.1805415797
1.1944541395
1.1632935987
1.1863827632
1.1918769680
1.2074869780
1.2001157132
1.1804925961
1.1862581446
1.1814479377
1.1959510003
1.1688010223
1.1947038751
1.2097566873
1.2026779843
1.1713026756
1.1653139117
1.1614876400
1.1705520203
1.1752973379
1.1890290291
1.2051360853
1.1974563191
1.1613889898
1.1607375672
1.1842457277
1.1963398710
1.1872679020
1.1961709314
1.1669563271
1.1959137928
1.1981402988
1.1601428481
1.1615716700
1.1885632126
1.1913419542
1.1659591219
1.1939752979
1.1968540618
1.1928487219
1.1634644511
1.1607740866
1.1620391880
1.1942957381
1.1935928525
1.1873310495
1.1889146498
1.1939946706
1.1642440824
1.1626639733
1.1678583037
1.1660165299
1.1778576630
1.1613904977
1.1601148686
1.1814752630
1.1624615063
1.1645654297
1.1794628994
1.1598953381
1.1918706418
1.1611741017
1.1934373155
1.1934176156
1.1600967844
1.1883027360
1.1606012553
1.1603973338
1.1956558434
1.1609076156
1.1938004338
1.1926271782
1.1621275075
1.1610150495
1.2021538093
1.2071752511
1.2068064733
1.2068211747
1.2071924032
1.2077751572
1.2065916466
1.2099634000
1.2094569973
1.2052643223
1.2059740940
1.2045913095
1.2052787888
1.2082655148
1.2098533509
1.2068232014
1.2119264878
1.2094677408
1.2077820882
1.2109627106
1.2119978360
1.2087718298
1.2053493150
1.2085127393
1.2122406258
1.2113327964
1.2067506749
1.2103147826
1.2125693259
1.2091550499
1.2129411667
1.2101929529
1.2095015604
1.2044288007
1.2097568573
1.2071613114
1.2119337003
1.2115405109
1.2109737572
1.2055053108
1.2086349034
1.2056222707
1.2070286026
1.2028106505
1.1978316337
1.2080208393
1.2112215254
1.2057573331
1.1968234125
1.2067538930
1.2113395864
1.2037450072
1.2113051686
1.2104855900
1.2044333521
1.2057901751
1.1951292604
1.2086475944
1.2014717912
1.2102050551
1.2041376040
1.2071834544
1.2073519379
1.1957722870
1.1961462864
1.2097658624
1.2016669655
1.2026684208
1.2041825570
1.1975826627
1.2032819251
1.2041241544
1.1991319446
1.1994152199
1.2057704512
1.1993702803
1.2129949046
1.1978511277
1.1972420112
1.1978080138
1.2070445575
1.2024466721
1.1951294746
1.1784715461
1.1812802164
1.2073702037
1.2014757080
1.1999140860
1.1957868432
1.2020952660
1.2007088425
1.2043348140
1.1961676232
1.1977316702
1.1793293997
1.1816275570
1.1958163524
1.2011304978
1.2005290976
1.1972475801
1.1933858337
1.1922930632
1.2027013870
1.1884538107
1.1919369939
1.1984289503
1.2026292986
1.1907542867
1.1995025597
1.2008740597
1.1993738344
1.1873787738
1.1978094692
1.1974241463
1.1920377294
1.1903289819
1.1881377665
1.1896245260
1.1994380494
1.2026172341
1.1890578065
1.1994715313
1.2130007622
1.1909255502
1.1999199544
1.1961693587
1.1939812347
1.1958278210
1.1835009394
1.1949490805
1.1805809390
1.1780301560
1.2008380399
1.1812670222
1.1992770211
1.1924876884
1.1836466394
1.1940331311
1.1784530145
1.1802522525
1.1872849061
1.1890929815
1.2026404294
1.1855918837
1.1881298096
1.1907436626
1.1930286936
1.1919346804
1.1947162886
1.2009546098
1.1933848961
1.1994729802
1.1953288512
1.1986993756
1.1890865235
1.1907527340
1.1873776517
1.2040841131
1.1923953603
1.1892354220
1.1995253060
1.1903850387
1.1922909148
1.1915731236
1.1934122740
1.1924094006
1.2008976132
1.1852915337
1.1834906504
1.1943648864
1.1950782795
1.1940339348
1.1978139850
1.1949489691
1.1838089049
1.1823615992
1.1839276271
1.1854925533
1.1941081615
1.1728868316
1.1822445617
1.1959492557
1.1961672444
1.1854907761
1.1921794239
1.1938348816
1.1805641931
1.1820265859
1.1840436321
1.1939970233
1.1708541092
1.1923981092
1.1873750134
1.1750564352
1.1855892179
1.1892308956
1.1829362071
1.1953292605
1.1934321199
1.1776191029
1.1930268201
1.1870990520
1.2009760708
1.1804700689
1.1947292736
1.1772154488
1.1906951199
1.1890834293
1.1839228612
1.1708521968
1.1906126101
1.1854894025
1.1921545460
1.1871097375
1.1861770768
1.1959500504
1.2145165696
1.1938337989
1.1854876159
1.1965088687
1.1951248292
1.1821883136
1.1712824133
1.1837028051
1.1889416803
1.1939556870
1.1823499853
1.2148601592
1.1852779908
1.1978320169
1.1804644899
1.1889440310
1.1792483684
1.2142759478
1.1757289385
1.1835936762
1.1796743874
1.1858182320
1.1907545100
1.1754788205
1.1743460742
1.1733337690
1.1809374008
1.1769055861
1.1925657385
1.1822373695
1.1869139975
1.1775969220
1.1737126239
1.1890607729
1.1733686794
1.1796229826
1.1906122878
1.2145185466
1.1861663374
1.1788637400
1.2144317088
1.1776534270
1.1847006691
1.2150391925
1.1873222486
1.1903952652
1.1808861810
1.2158818171
1.1826762314
1.2142764558
1.1743422520
1.1801446746
1.1761987166
1.2133633260
1.1925657972
1.1796659580
1.1870804940
1.2163906457
1.1792311120
1.1755503359
1.2177624936
1.1743584442
1.1835858584
1.1789978474
1.1768955929
1.1889687378
1.2158287301
1.1916480041
1.1814162276
1.1713345172
1.1733637381
1.1788493955
1.2156763910
1.1739982176
1.1738900798
1.1804025688
1.1849833496
1.1796051325
1.1724077441
1.2145208782
1.1788675854
1.1763689901
1.2136871405
1.2145877289
1.1714436934
1.1819442351
1.2133651632
1.2177634456
1.2106080513
1.2169493542
1.1826642897
1.1690486249
1.2158301187
1.2179047526
1.1681317026
1.1831734898
1.1808753593
1.2170605132
1.1756956765
1.2080248226
1.2161585611
1.1903307466
1.1773274263
1.2137834197
1.2124288753
1.1771010386
1.1696774434
1.2175111120
1.1682277542
1.1803992768
1.2138848064
1.1739592187
1.1706450497
1.1836671622
1.1738829092
1.1728034333
1.1728845536
1.1684905659
1.2128682063
1.2157602786
1.1803679546
1.2136905276
1.1814055839
1.2156741463
1.1713322887
1.1916580198
1.1788639047
1.1705558298
1.1770349909
1.1739961556
1.1699880298
1.2166828033
1.1678145862
1.2198205812
1.1856109795
1.2161598981
1.2179048532
1.1716714159
1.1694996522
1.1678987828
1.2069093973
1.1692563690
1.2116954475
1.2183886029
1.1681330625
1.2137864947
1.1831688696
1.2192853138
1.2179585689
1.1719385821
1.1770980398
1.2052178444
1.1785321437
1.2094977949
1.1690484567
1.2191473826
1.2194962154
1.1716047316
1.1692519401
1.2157571905
1.1857267220
1.1706446702
1.2150685343
1.2128713084
1.1836636234
1.2199666104
1.1728021023
1.1679466932
1.2162452228
1.1770317849
1.2008832720
1.1872697580
1.1670317266
1.2039826096
1.2191474759
1.1716703606
1.1690853889
1.2192848077
1.1678976822
1.1785290424
1.1697236903
1.2203471803
1.1694990776
1.1856147618
1.2187119532
1.1671107500
1.1752923224
1.2181644033
1.1711843063
1.1977779369
1.1677222398
1.2197760257
1.1872052561
1.1667428536
1.2200077524
1.2218145967
1.2022209128
1.1669880651
1.1857320379
1.2187957487
1.2222729063
1.2150705896
1.1946342266
1.1668584415
1.1670566278
1.2178076383
1.2203475321
1.2187122605
1.2211084029
1.1677241536
1.1697257551
1.2190226623
1.1694521916
1.1990923317
1.1752890170
1.1668262989
1.1872769564
1.2216307114
1.2218434462
1.1679865406
1.2184224456
1.1914751853
1.1959268994
1.1668694138
1.1667408583
1.2222449147
1.1668568237
1.1671861207
1.1666156727
1.1885955492
1.2214819743
1.1673272773
1.1883714938
1.2188904580
1.2089071953
1.2166660905
1.2133750309
1.1927790710
1.2218444351
1.1893016867
1.2205718971
1.2032242884
1.2163914607
1.2178058219
1.1937137373
1.2209989613
1.2212523261
1.1694545502
1.2174845232
1.2205488319
1.2112961144
1.2153986473
1.1905527210
1.2061688541
1.2172722706
1.1969213001
1.2216318906
1.2210448710
1.2190223071
1.1670093422
1.1874945993
1.1896718295
1.1671856216
1.1747580061
1.2001177178
1.1666143953
1.1786696921
1.1853470965
1.1667668946
1.1708155201
1.1687885507
1.1825326925
1.1862661821
1.1727413127
1.1666210199
1.1767587497
1.1841322852
1.1663471290
1.1690980567
1.1677114750
1.1805969829
1.1956813824
1.2069584353
1.2150578320
1.2202667957
1.2009892068
1.1912857307
1.2163888127
1.1893066101
1.2166638217
1.2198560275
1.1869612129
1.2118966877
1.2176643875
1.2205723921
1.2050346152
1.2145397099
1.2103652541
1.2193914681
1.1988786705
1.2095798156
1.2159086149
1.2212535479
1.2040689210
1.1945167849
1.2180227170
1.1924662194
1.1881617924
1.2139831520
1.2196337339
1.2078309890
1.2153954578
1.2125788089
1.2205501497
1.1763600377
1.1977785811
1.1852182885
1.1833817802
1.1811423142
1.1777474643
1.1841803347
1.1690992485
1.1675089554
1.1664599713
1.1866540340
1.1663954103
1.1684114267
1.1739936851
1.1702844418
1.2020152394
1.1670104550
1.1723210002
1.1802496014
1.1783077649
1.1840645459
1.1824290946
1.1795349292
1.1758892222
1.1855706805
1.1704335609
1.1687906182
1.1660393280
1.1874958578
1.1666830281
1.1673625436
1.1720945939
1.1686707078
1.1743348488
1.1823537790
1.2047440265
1.2134800836
1.2182890880
1.2198562968
1.2161841905
1.2086060502
1.1932816001
1.1845720368
1.2100441774
1.1869617154
1.2131473530
1.1985238380
1.1887423792
1.2029209553
1.2150542662
1.2075334794
1.2143204198
1.2196349212
1.2184427843
1.2110403263
1.1965516336
1.1857280982
1.2122913414
1.1900560984
1.2139789829
1.2017186344
1.1919427745
1.2058789664
1.2167840703
1.1813935106
1.1793564320
1.1796457121
1.1661299378
1.1845920850
1.1697057620
1.1755528891
1.1952351003
1.1717204556
1.1686693316
1.1679719935
1.1660924457
1.1829796979
1.1997876191
1.1767301926
1.1826274705
1.1732049296
1.1672074505
1.1806696304
1.1811496026
1.1783099712
1.1664245117
1.1852158340
1.1681840540
1.1774626118
1.1736193033
1.1699500171
1.1669487452
1.1656883571
1.1818986754
1.1750008201
1.1837547009
1.1714126599
1.1684116348
1.1653872642
1.1755116763
1.1823167427
1.1707147847
1.2065394665
1.2134762355
1.1646416193
1.1657256092
1.1959091876
1.1755073261
1.1862560087
1.2005522933
1.1712279768
1.1677573726
1.1642111657
1.2169221917
1.1906949499
1.1845706351
1.2078796451
1.2022970408
1.2114559670
1.1768079618
1.1770447934
1.1735017461
1.2144403135
1.1737474082
1.1683048504
1.2116187799
1.1663450769
1.1764824952
1.1834407601
1.1720932746
1.2091557552
1.2152911302
1.1642877828
1.1647942380
1.1991714838
1.1747133336
1.1893435401
1.2036518270
1.1699235018
1.1690314784
1.1639938936
1.2184436419
1.1939884320
1.1875241630
1.2102831988
1.2052151296
1.2122874684
1.1776729096
1.1762178884
1.1747425898
1.2169584481
1.1725765745
1.1669232676
1.2124526715
1.1889598036
1.1656644696
1.1809723585
1.1747356867
1.1816687071
1.1674781742
1.1756397381
1.1668378986
1.2046142847
1.2029916958
1.1968468404
1.1690864989
1.1951676312
1.1855871015
1.1795217586
1.1681798817
1.1825025363
1.1838402141
1.1710902937
1.1798798595
1.1658182264
1.1925985078
1.1723896708
1.1973045922
1.1809937528
1.1782775810
1.1898697036
1.1781334821
1.1905688955
1.1652818785
1.1799538163
1.1765535394
1.1802266210
1.1664769595
1.1740667428
1.1679696729
1.2070027883
1.2052815513
1.1967786465
1.1676470414
1.1947865485
1.1838085760
1.1789530025
1.1694176060
1.1829771452
1.1859873076
1.1728927995
1.1818690638
1.1661014021
1.1706991747
1.1818765039
1.1797924531
1.1882859691
1.1770196695
1.1770802418
1.1669351359
1.1713709601
1.1669343557
1.1761258688
1.1755066626
1.1741397276
1.1724780654
1.2042088890
1.1653778190
1.1698173924
1.1682413000
1.1653803427
1.1771716763
1.1979760036
1.1705600104
1.1778045551
1.1770450465
1.1757294183
1.1784470127
1.1747552870
1.2094457188
1.1675857503
1.1642090597
1.1745353098
1.1664183577
1.1705661834
1.1692245920
1.1652704216
1.2152838437
1.1788688627
1.1683000979
1.1880687614
1.1774941578
1.1771728229
1.1630128006
1.1641869153
1.1757267756
1.1719392506
1.1634771302
1.1712247800
1.1657218504
1.1644468724
1.2116158184
1.1823164555
1.1737456601
1.1735105223
1.1640692108
1.1762023392
1.1655976055
1.1697526369
1.1684748080
1.1659207267
1.1769400658
1.1762321044
1.1749411003
1.1712013141
1.2069768593
1.1646398229
1.1686609444
1.1670667218
1.1763536463
1.2011877480
1.1692035716
1.1769859813
1.1781246400
1.1781241403
1.1736467322
1.2102807808
1.1664487257
1.1647960890
1.1729979732
1.1675931565
1.1704526425
1.1650249279
1.2169588988
1.1783929690
1.1737169592
1.1697688172
1.1913115762
1.1784475842
1.1628131907
1.1650828796
1.1746208998
1.1729784473
1.1631226689
1.1725738209
1.1669188247
1.1635936590
1.2135399728
1.1850381245
1.1747115795
1.1721721499
1.2016748500
1.1654518398
1.1658960382
1.1630375632
1.1676412618
1.1946514285
1.2022000605
1.1738820702
1.1947889065
1.1740748244
1.1758887842
1.1793484146
1.1812663686
1.1618495062
1.2094638092
1.2029939952
1.2071548613
1.1664072099
1.1918153156
1.1953056981
1.1632953874
1.1704312659
1.1987823380
1.1706348308
1.1652927422
1.1889618181
1.1974734154
1.1816708642
1.1816719557
1.1887047819
1.1805339824
1.1770944721
1.1624144059
1.1879272431
1.1835227155
1.2133734365
1.2059772487
1.1784336159
1.1749681496
1.2008457631
1.1969364466
1.1828207701
1.2014706655
1.1698060073
1.2045534821
1.1657162665
1.1644866466
1.1638417076
1.1688441541
1.2016134694
1.1755654960
1.1967811226
1.1748233719
1.1800398328
1.1835236982
1.1616659390
1.2115130593
1.2052836687
1.2079832492
1.1674740190
1.1927389843
1.1985685758
1.1623970251
1.1721410857
1.2008482123
1.1690447057
1.1663613759
1.1904082527
1.1968492816
1.1838097933
1.1916536008
1.1919792530
1.1809720902
1.1783733130
1.1619658508
1.1898715275
1.2151862050
1.2070046167
1.1992848566
1.1804205082
1.1736059713
1.2038312983
1.1987798368
1.1856111980
1.1708264284
1.1825235467
1.2094625286
1.1953086958
1.1771719143
1.2133727739
1.1698158009
1.1773380635
1.1804209453
1.1895179537
1.1758693980
1.1934306511
1.2100892628
1.1929049101
1.1641849305
1.1909075690
1.1740127634
1.1997554327
1.1856130038
1.1864935924
1.1740122327
1.1747396130
1.1747552714
1.1934822346
1.1675920804
1.1642860631
1.1777201210
1.1776728979
1.1641820122
1.1904860492
1.1970921883
1.1669327194
1.1690249463
1.1793384249
1.1979723137
1.1770812223
1.2070415702
1.1724774355
1.1726113299
1.1783003231
1.1807550842
1.1658219090
1.1790949377
1.1920208071
1.1647640622
1.1645861479
1.1762175666
1.1690264033
1.1628876641
1.1823896910
1.1958863796
1.1690235201
1.1662442713
1.2016768455
1.1849519995
1.1717868224
1.2028300611
1.2071544110
1.1670732404
1.1853086279
1.2115117605
1.1985713117
1.1786966811
1.2151863959
1.1712001917
1.1783007442
1.1728005779
1.1828217710
1.1874843854
1.1751071517
1.1933098406
1.2122331712
1.1913406144
1.1940229262
1.1987399531
1.1887072507
1.1895623382
1.1754279785
1.1731052881
1.1758933552
1.1934154617
1.1637148776
1.1671982202
1.1634744224
1.1926273509
1.2000431864
1.1683687080
1.1811952878
1.1971466621
1.2078404679
1.1736464394
1.1628901976
1.1786963992
1.1794869196
1.1802087135
1.1934348700
1.1655950270
1.1635614243
1.1849663181
1.1945154722
1.1677888119
1.1644442115
1.2045543049
1.1831826505
1.1706297831
1.2054294470
1.2079827004
1.1697411029
1.1919821383