<VTKFile type="UnstructuredGrid" version="0.1">
	<UnstructuredGrid>
		<Piece NumberOfPoints="1862" NumberOfCells="3498">
			<CellData>
				<DataArray type="Int32" Name="type" NumberOfComponents="1" Format="ascii">
0
0
0
0
0
0
0
0
0
0
0
0
0
0
0
0
1
0
0
1
0
0
0
0
0
0
0
0
0
0
0
0
0
1
0
0
0
0
0
0
0
0
0
0
0
0
0
0
0
0
1
0
0
0
0
0
0
0
0
0
0
1
0
0
0
0
0
0
0
0
0
0
0
0
0
0
0
0
0
0
0
0
0
0
0
0
0
0
0
0
0
0
0
0
0
0
0
0
0
0
0
0
0
0
0
0
0
0
0
0
0
0
0
0
0
0
0
0
0
0
0
0
0
1
0
0
0
0
0
0
0
0
0
0
0
0
0
0
0
0
0
0
0
0
0
0
0
0
0
0
0
1
0
1
1
0
0
0
0
0
0
0
0
0
0
0
0
0
1
0
1
0
0
0
0
1
0
0
0
0
0
0
0
0
1
1
0
0
0
0
0
1
0
0
0
0
0
0
0
0
1
0
0
0
0
0
0
0
0
0
0
0
0
0
0
0
0
0
0
0
0
0
0
0
0
0
0
0
0
0
0
0
0
1
0
0
0
0
0
0
0
0
0
0
0
0
0
0
0
0
0
0
0
0
0
0
0
0
0
0
0
0
0
0
0
0
0
0
0
0
0
0
0
0
0
0
0
0
0
0
0
1
0
0
0
0
0
0
0
0
0
0
0
0
0
0
0
0
0
0
0
0
0
0
0
0
0
0
0
0
0
0
0
0
0
0
0
0
0
0
0
0
0
0
0
0
0
0
0
0
0
0
1
0
0
0
0
0
0
0
0
0
0
0
0
0
0
0
0
0
0
0
0
0
0
0
0
0
0
0
0
0
0
0
0
0
0
0
0
0
0
0
0
0
0
0
0
0
0
0
0
0
0
0
0
0
0
0
0
0
1
0
0
0
0
0
0
0
0
0
0
0
0
0
0
0
0
0
0
0
0
0
0
0
0
0
0
0
0
0
0
0
0
0
0
0
0
0
0
0
0
0
0
0
0
0
0
0
0
0
0
0
0
0
0
0
0
0
0
0
0
0
0
0
0
0
0
0
0
0
0
0
0
0
0
0
0
0
0
0
0
0
0
0
0
0
0
0
0
0
0
0
0
0
0
0
0
0
0
0
0
0
0
0
0
0
0
0
0
0
0
0
0
0
0
0
0
0
0
0
0
0
0
0
0
0
0
0
0
0
0
0
0
1
0
0
0
0
0
0
0
0
0
0
0
0
0
0
0
0
0
0
0
1
0
0
0
0
0
0
0
0
0
0
0
0
0
0
0
0
0
0
0
0
0
0
0
0
0
0
0
0
0
0
0
0
0
0
0
0
0
0
0
0
0
0
0
0
0
0
0
0
0
0
0
0
0
1
0
0
0
0
0
0
0
0
0
0
0
0
0
0
0
0
0
0
0
0
0
0
0
1
0
0
0
0
0
0
0
0
0
0
0
0
0
0
0
0
0
0
0
1
0
0
0
1
0
0
0
0
0
0
0
0
0
0
0
0
0
0
0
0
0
0
0
0
0
0
0
0
0
1
0
0
0
0
0
0
0
1
0
0
0
0
0
0
0
0
0
0
0
0
0
0
0
0
0
0
0
0
0
0
0
0
0
0
1
0
0
0
0
0
0
0
1
0
0
0
0
0
0
1
0
0
0
0
0
0
0
0
0
0
0
0
0
0
0
0
0
0
0
0
0
0
0
0
0
0
0
0
0
0
0
0
0
0
0
0
0
0
1
0
0
0
0
0
1
0
0
0
0
0
0
0
1
0
0
0
0
0
0
0
0
0
0
0
0
0
1
0
0
0
0
0
0
0
0
0
0
0
0
0
0
0
0
0
0
0
0
0
0
0
0
0
0
0
0
0
0
0
0
0
0
0
0
0
0
0
0
0
0
0
0
0
0
0
0
0
0
0
0
0
1
0
0
0
0
0
0
0
0
0
0
0
0
0
0
0
0
0
0
0
1
0
0
0
0
0
0
0
0
0
1
0
0
0
0
0
0
0
0
0
0
0
0
0
0
0
0
0
0
0
0
0
0
0
0
0
0
0
0
0
1
0
1
0
0
0
0
0
0
0
0
0
0
0
0
0
0
0
0
0
0
0
0
0
0
0
0
0
0
0
1
0
0
0
1
0
0
0
0
0
0
0
0
0
0
0
0
0
0
0
0
0
0
0
0
0
0
0
0
0
0
0
0
1
0
0
0
0
0
0
0
0
0
0
0
0
0
0
0
0
0
0
0
0
0
0
0
0
0
1
0
0
0
0
0
0
0
0
0
0
0
0
0
0
0
0
0
0
0
0
0
0
0
1
0
0
0
0
0
0
1
0
0
0
0
0
0
0
0
0
0
0
1
0
0
0
0
0
0
0
0
0
0
0
0
0
0
0
0
0
0
0
0
1
0
0
0
0
0
0
0
0
0
0
0
1
0
0
0
0
0
0
0
0
0
0
0
0
0
0
0
0
0
0
0
0
0
1
0
0
0
0
0
0
0
0
0
1
1
0
1
0
1
0
0
0
0
0
0
0
0
0
0
0
1
0
0
0
0
0
1
1
0
0
0
0
0
0
1
0
0
0
0
0
1
1
1
0
0
0
0
0
0
0
0
0
0
0
0
1
1
0
0
1
0
0
0
0
0
1
0
0
0
1
0
1
0
0
0
0
0
0
0
1
0
0
0
0
0
0
0
1
0
0
1
0
0
0
0
0
0
0
0
0
0
0
0
0
0
0
1
0
0
0
0
0
0
0
0
0
0
0
0
0
0
0
0
0
0
0
0
0
0
0
0
0
0
0
0
0
0
0
0
0
0
0
0
1
0
0
0
0
0
0
1
0
0
0
1
0
0
0
0
0
0
0
0
0
0
0
1
0
0
0
0
0
0
0
0
0
0
0
0
0
0
0
0
0
0
0
0
0
0
0
0
0
0
0
0
0
0
0
0
0
0
0
0
0
0
0
0
1
1
0
0
0
0
0
0
0
0
0
0
0
0
0
1
0
0
0
0
0
0
0
0
0
0
0
0
0
0
0
0
0
0
0
0
0
0
0
0
0
0
0
0
0
0
0
0
0
0
0
0
0
0
0
0
0
0
0
0
0
0
0
0
0
0
0
0
0
0
0
0
0
0
0
0
0
0
0
0
0
0
0
0
0
0
0
0
1
1
0
0
0
0
0
0
0
0
1
0
0
0
0
0
0
0
0
0
0
0
0
0
0
0
0
0
0
0
0
0
0
0
1
0
0
0
0
0
0
0
0
0
0
0
0
0
0
0
0
1
0
0
0
0
0
0
0
0
0
0
0
0
0
0
0
0
0
0
0
0
0
0
0
0
0
0
0
0
0
0
0
0
0
0
0
0
0
0
0
0
0
0
0
0
0
0
0
0
0
0
0
0
0
0
0
0
0
0
0
0
0
0
0
0
0
0
0
0
0
0
0
0
0
0
0
0
0
0
0
0
0
0
0
0
0
0
0
0
0
0
1
1
0
0
0
0
0
1
0
0
0
0
0
0
0
0
0
0
0
0
1
0
0
0
0
0
0
0
0
0
0
0
0
0
0
0
0
0
0
0
0
0
0
0
0
0
0
0
0
0
0
0
0
0
0
0
0
0
0
0
0
0
0
0
0
0
0
0
0
0
0
0
0
0
1
0
1
0
0
0
0
0
0
0
0
0
0
0
0
0
0
0
0
0
0
1
0
0
0
0
0
0
0
0
0
0
0
0
0
0
0
0
0
0
0
0
0
0
0
0
0
0
0
0
0
0
0
0
0
0
0
0
0
0
0
0
0
0
0
0
0
0
0
0
0
0
0
0
0
0
0
0
0
0
0
0
0
0
0
0
0
0
0
0
0
0
1
0
0
0
0
0
0
0
0
0
0
1
0
0
0
0
0
0
0
0
0
0
0
0
0
0
0
0
0
0
0
0
0
0
0
0
0
0
0
0
0
0
0
0
0
0
0
0
0
1
0
0
0
0
0
0
0
0
0
0
0
0
0
0
0
0
0
0
0
0
0
0
0
0
0
0
0
0
0
0
0
0
0
0
0
0
0
0
0
0
0
0
0
0
0
0
0
0
0
0
0
0
0
0
0
0
0
0
0
0
0
0
0
0
0
0
0
0
0
0
0
0
0
0
0
0
0
0
0
0
0
1
0
0
0
0
0
0
0
0
0
0
0
0
0
0
0
0
0
0
0
0
0
0
0
0
0
0
0
0
0
0
0
0
0
0
0
0
0
0
0
0
0
0
0
0
0
0
0
0
0
0
0
0
0
0
0
0
0
0
0
0
0
0
0
0
0
0
0
0
0
0
0
0
0
0
0
0
0
0
0
0
0
0
0
0
0
0
0
0
0
0
0
0
0
0
0
0
0
0
0
0
0
0
0
0
0
0
0
0
0
0
0
0
0
0
0
0
0
0
0
0
0
0
0
1
0
0
0
0
0
0
0
0
0
0
0
0
0
0
0
0
0
0
0
0
0
0
0
0
0
0
0
0
0
0
0
0
0
0
0
0
0
0
0
0
0
0
0
0
0
0
0
0
0
0
0
0
0
0
0
0
0
0
0
0
0
0
0
0
0
0
0
0
0
0
0
0
0
0
0
0
0
0
0
0
0
1
0
0
0
0
0
0
0
1
0
0
0
0
0
0
0
0
0
0
0
0
0
0
0
0
0
0
0
0
0
0
0
0
0
0
0
0
0
0
0
0
0
0
0
0
0
1
0
0
0
0
0
0
0
0
0
0
0
0
0
0
0
0
0
0
0
0
0
1
0
0
0
0
0
0
0
0
0
0
0
0
1
1
0
0
0
0
0
0
0
0
0
0
0
0
0
0
0
1
1
0
1
0
0
0
0
0
0
0
0
0
1
0
0
0
0
0
0
1
0
0
0
0
0
0
0
0
0
0
1
0
0
0
0
1
0
1
0
0
0
0
0
0
0
1
0
0
0
1
0
0
0
1
0
1
1
0
0
1
1
0
0
0
1
0
0
0
1
0
0
0
0
0
0
0
0
0
1
0
0
0
0
0
0
1
0
0
0
0
0
0
0
0
0
0
0
0
0
0
0
0
0
0
0
0
0
0
0
0
0
0
0
1
0
0
1
0
0
0
0
0
0
0
0
0
0
0
0
0
0
0
0
0
0
1
0
0
1
0
0
0
0
0
0
0
0
0
0
0
1
0
0
1
0
0
0
0
0
0
0
0
0
0
0
1
1
0
0
0
0
0
0
0
0
0
0
0
0
1
0
0
0
0
0
0
0
0
0
0
0
0
0
0
0
0
0
1
0
0
0
0
0
0
0
0
0
0
0
0
0
0
0
0
0
1
0
0
0
0
0
0
0
0
0
0
0
0
0
0
0
0
0
0
0
0
0
0
0
0
0
0
0
0
0
0
0
0
0
0
0
0
0
0
0
0
1
0
0
0
0
0
0
0
0
0
0
0
0
0
0
0
0
0
0
0
0
0
0
0
0
0
0
0
0
0
0
0
0
0
0
0
0
0
0
0
0
0
0
0
0
0
1
0
0
0
0
0
0
0
0
0
0
0
0
0
0
0
0
0
0
0
0
0
0
0
0
0
0
0
0
0
0
0
0
0
0
0
0
0
0
0
0
0
0
0
0
0
0
0
1
0
0
0
0
0
0
0
0
0
0
1
0
0
0
0
0
0
0
0
0
0
0
0
0
0
0
1
0
0
1
0
0
0
0
0
0
0
0
0
0
0
0
0
0
0
0
0
0
0
0
0
0
0
1
0
0
0
0
0
0
0
0
0
0
0
0
0
0
0
0
0
0
0
0
0
0
0
0
0
0
0
0
0
0
0
0
0
0
0
1
0
0
0
0
0
0
0
0
0
0
0
0
0
0
0
0
0
0
0
0
0
0
0
0
0
0
0
0
0
0
0
0
0
0
0
0
0
0
0
0
0
0
0
0
0
0
0
0
0
0
0
0
0
0
0
0
0
0
0
0
0
0
0
0
0
0
0
0
0
0
0
0
0
0
0
0
1
0
0
0
0
0
0
0
0
0
0
0
0
0
0
0
0
0
0
0
0
0
0
0
0
0
0
0
0
0
0
0
0
0
0
0
0
0
0
0
1
0
0
0
0
0
0
0
0
0
0
0
0
1
1
0
0
0
0
0
0
0
0
0
0
0
0
0
0
0
0
0
0
0
0
0
0
0
0
0
0
0
0
0
0
0
0
0
0
0
0
0
0
0
0
0
0
0
0
0
0
0
0
0
0
0
0
0
0
0
0
0
0
0
0
0
0
0
0
0
0
0
0
0
0
0
0
0
0
0
0
0
0
0
0
0
0
0
0
0
0
0
0
0
0
0
0
0
0
0
0
0
0
0
0
0
1
0
1
0
0
0
0
0
0
0
1
1
1
1
0
0
0
0
0
0
0
0
0
0
0
0
0
0
0
0
0
0
0
0
0
0
0
0
0
0
0
0
1
1
0
0
0
0
0
0
0
0
0
0
0
0
0
0
0
0
0
0
1
0
0
0
0
0
0
0
1
1
0
1
1
0
0
1
0
0
0
0
0
0
0
1
0
1
0
0
0
0
0
0
0
0
0
0
0
0
0
0
0
0
0
0
0
0
0
0
0
0
0
0
0
1
1
0
0
0
1
1
0
0
0
0
1
0
0
1
0
1
0
0
0
0
0
1
0
0
0
1
0
0
0
0
0
0
0
0
0
0
0
0
0
0
0
0
0
0
0
0
0
0
0
0
0
0
0
1
0
0
0
0
0
0
1
0
0
0
0
0
0
0
0
0
0
0
0
0
0
0
0
0
0
0
0
0
0
0
0
0
0
0
0
0
1
0
1
0
0
0
0
0
0
0
1
0
0
0
0
0
0
0
0
0
0
0
1
0
0
0
0
0
0
0
0
0
1
0
0
0
0
0
0
0
1
0
0
0
0
0
0
0
1
0
0
0
0
0
0
0
0
0
0
0
0
0
0
0
0
0
0
0
1
0
1
0
0
0
0
0
1
0
0
0
0
0
0
0
0
0
0
0
0
0
0
0
0
0
0
0
0
0
0
0
0
0
1
0
1
0
0
0
0
0
0
0
0
0
1
0
0
0
0
0
1
0
0
0
0
0
0
0
0
0
0
0
0
0
0
0
1
0
0
0
0
0
0
0
0
1
0
0
0
0
0
0
0
0
0
0
0
0
0
0
0
0
0
0
0
0
0
0
0
0
0
0
0
0
0
0
1
0
0
0
0
0
0
0
0
0
0
0
0
0
0
0
0
1
0
0
0
0
0
0
0
0
1
0
0
0
0
0
0
0
0
0
1
0
0
0
0
0
1
0
0
0
0
0
0
0
0
0
0
0
0
0
0
0
0
0
0
0
1
0
0
0
0
0
0
1
0
0
0
0
0
0
0
0
1
0
0
0
0
0
0
0
0
0
0
0
0
0
0
1
0
0
1
0
0
0
1
0
0
0
0
0
0
0
0
0
0
0
0
0
0
0
0
1
0
0
0
0
0
0
0
0
0
0
1
0
1
0
0
0
0
0
0
1
0
0
0
0
0
0
0
0
0
0
0
0
0
0
0
0
0
0
0
0
0
0
0
0
0
0
0
1
1
0
0
0
0
0
0
1
0
0
0
0
0
0
0
0
0
0
0
0
0
1
0
0
0
0
0
0
0
1
0
0
0
0
0
0
0
0
0
0
0
0
0
0
0
0
0
0
0
0
0
0
0
0
0
0
0
1
0
0
0
0
0
0
0
0
0
0
1
0
0
1
0
0
0
0
0
0
0
0
0
0
0
0
0
0
0
0
0
0
0
0
0
0
0
0
0
0
0
0
0
1
0
0
0
0
0
0
0
1
0
0
0
0
0
0
0
1
0
0
0
0
1
0
0
0
0
0
0
0
0
0
0
0
1
0
1
0
0
0
1
0
				</DataArray>
				<DataArray type="Float64" Name="h" NumberOfComponents="1" Format="ascii">
1.2058709259
1.2058607426
1.2073270124
1.2042675237
1.2081062810
1.2075994696
1.2059482032
1.2037803137
1.2061232863
1.2017691625
1.2036947795
1.2063686976
1.2046004624
1.2023500649
1.2044568960
1.2040371018
1.2048101986
1.2024532161
1.2060450145
1.2024978768
1.2086217927
1.2059001936
1.2079951305
1.2096921523
1.2039308615
1.2042014781
1.2079363946
1.2145270176
1.2092829548
1.2015390854
1.2016859807
1.2079155037
1.2061268953
1.2076186519
1.2140827070
1.2107508054
1.2112913308
1.2090809310
1.2142708468
1.2096600062
1.2091975127
1.2146344363
1.2078118302
1.2104269933
1.2107225394
1.2131145976
1.2089601474
1.2159192567
1.2284460384
1.2273248355
1.2103467875
1.2119067987
1.2103491799
1.2201948306
1.2135268065
1.2086449326
1.2130780524
1.2183576892
1.2197730073
1.2191573935
1.2219622595
1.2209219801
1.2274665460
1.2119175398
1.2113802496
1.2171208038
1.2261180043
1.2262702248
1.2208844315
1.2197786715
1.2195997152
1.2139769682
1.2097801719
1.2215260080
1.2205226373
1.2156913023
1.2186119507
1.2221417952
1.2168394201
1.2156017000
1.2241018119
1.2185521795
1.2316796164
1.2249580532
1.2138118909
1.2176205284
1.2252330640
1.2236056546
1.2231741726
1.2310724719
1.2259766431
1.2159784067
1.2230601770
1.2302540661
1.2195278666
1.2179011097
1.2224458286
1.2139587185
1.2155653028
1.2252493014
1.2310876840
1.2244856880
1.2212239722
1.2170868864
1.2005738191
1.2252016367
1.2200556531
1.2294146672
1.2222074703
1.2196934955
1.2293399124
1.2303162522
1.2248628307
1.2265729837
1.2226015548
1.2294247720
1.2213537263
1.2008247532
1.2286663484
1.2239594180
1.2000206694
1.2225105633
1.2178265124
1.1970938480
1.2254917907
1.2294804113
1.2227257136
1.1975849608
1.2287175009
1.2298531828
1.2279781276
1.2204751954
1.2241151284
1.2296187852
1.1996581201
1.2279613984
1.2034748227
1.2299444078
1.2265129510
1.2055062776
1.1986395550
1.1978123129
1.2284950609
1.2070749809
1.2183434513
1.2270011785
1.2043541114
1.2315152943
1.1982327449
1.2317523114
1.2025729012
1.2300886818
1.2302867883
1.2314385558
1.2254542821
1.2304528260
1.2313701069
1.1997132158
1.2315071117
1.1966726532
1.2062615762
1.2312985003
1.2036747323
1.1977655088
1.1989450758
1.2309135648
1.2086341658
1.2050259819
1.1956121065
1.2305257252
1.2311243656
1.1954915834
1.2314010373
1.2002182126
1.2091799037
1.2317096319
1.2076712158
1.2322300505
1.2318262660
1.1983995517
1.2305297623
1.2107529865
1.1971417252
1.2184741639
1.1953832194
1.1943311461
1.2102760778
1.2317043206
1.1954119439
1.1945137590
1.2123603966
1.2319142751
1.1959515010
1.2120154912
1.2316847762
1.2320241335
1.2001480063
1.2140707618
1.2137312206
1.2318468950
1.1943341200
1.2201658046
1.1944030205
1.2318474295
1.2160035465
1.1994569589
1.2054849168
1.2031340994
1.2155655753
1.2077679147
1.2117816906
1.1954443609
1.1999694329
1.1998939767
1.2044109798
1.2132985163
1.2065653813
1.2005329119
1.2103729944
1.1976429658
1.2176485441
1.2310979040
1.2090290942
1.2288174039
1.2209098254
1.2326195634
1.2324125049
1.2256097368
1.2182074284
1.2318761571
1.2321241587
1.2300814365
1.2234430849
1.2322043361
1.2327743157
1.2272518567
1.2119179053
1.2063428670
1.1979398493
1.2080515471
1.2110706334
1.2044261084
1.2012884715
1.2081277287
1.2038469292
1.2060082472
1.2006608212
1.2105402378
1.2054656259
1.2022309158
1.2071832652
1.2099508791
1.2016382710
1.2135020660
1.2124177378
1.2018368403
1.2070235300
1.2049845184
1.1998893266
1.2299280060
1.2089631082
1.2206041536
1.2257365899
1.2293215760
1.2225574867
1.2329246009
1.2332783435
1.2170762185
1.2323261237
1.2318070264
1.2331756324
1.2092955238
1.2318699723
1.2268087041
1.2285295811
1.2175808022
1.2233589786
1.2276720099
1.2307140120
1.2199248221
1.2324688673
1.2327791325
1.2327719098
1.2334935557
1.2326249116
1.2310261711
1.2248592938
1.2068269731
1.2024381433
1.2030111500
1.2066660882
1.2110412805
1.2055103951
1.2050624514
1.2078364098
1.2099007902
1.2081365926
1.2062407179
1.2037752872
1.2018319135
1.2036716022
1.2059140443
1.2098830093
1.2111420286
1.2125166564
1.2073399742
1.2090199781
1.2073878142
1.2032323646
1.2200624380
1.2270404486
1.2257391730
1.2329937684
1.2161716438
1.2338930795
1.2304236907
1.2083690888
1.2325745186
1.2340241499
1.2089446412
1.2297374636
1.2222983289
1.2324164090
1.2336749338
1.2231043864
1.2248669696
1.2279287003
1.2334867052
1.2288877760
1.2316512461
1.2332152197
1.2342481798
1.2334957254
1.2167184404
1.2312298945
1.2193665521
1.2332991315
1.2069024071
1.2362573234
1.2071013327
1.2084029666
1.2076431719
1.2040751160
1.2097728219
1.2062272697
1.2068437007
1.2059503916
1.2045257795
1.2361148051
1.2210523957
1.2096671490
1.2317354959
1.2064785608
1.2046631686
1.2369644527
1.2069855272
1.2248247412
1.2076629577
1.2072695004
1.2342073646
1.2345859183
1.2368614222
1.2036661699
1.2087743614
1.2112309196
1.2066095911
1.2141119181
1.2192992565
1.2272748831
1.2052989271
1.2301288774
1.2359983868
1.2050751893
1.2347926754
1.2308267699
1.2300491848
1.2344245552
1.2060946818
1.2345452333
1.2194282622
1.2151164544
1.2331782639
1.2337663756
1.2072829229
1.2329334940
1.2081070796
1.2218556546
1.2271346821
1.2256353760
1.2028595928
1.2342816053
1.2158400278
1.2291600486
1.2111449621
1.2349886396
1.2316592914
1.2057257085
1.2033344464
1.2029806896
1.2055896118
1.2227413587
1.2338881991
1.2040610940
1.2321612622
1.2079477771
1.2342501993
1.2338910628
1.2186140210
1.2247103941
1.2032200151
1.2280610616
1.2175332738
1.2329664858
1.2216464286
1.2066463843
1.2364273959
1.2350108664
1.2066803074
1.2333418654
1.2210166740
1.2153048317
1.2111832073
1.2064150130
1.2355077811
1.2370994375
1.2295012934
1.2357284051
1.2054599548
1.2350433803
1.2083136764
1.2243640162
1.2375891389
1.2321466960
1.2366601624
1.2276875297
1.2297301228
1.2370842885
1.2341513851
1.2357970856
1.2170655490
1.2227919204
1.2316545968
1.2065833215
1.2352216802
1.2218780534
1.2066507547
1.2242991515
1.2269911442
1.2314292912
1.2355552041
1.2327179886
1.2353538861
1.2052930775
1.2174176211
1.2073497182
1.2111842645
1.2383117886
1.2372004634
1.2284360397
1.2381378879
1.2057828119
1.2099090124
1.2059209635
1.2345725320
1.2068613390
1.2311502281
1.2271353007
1.2213623496
1.2081168864
1.2063691460
1.2351385626
1.2053973090
1.2336955461
1.2058996637
1.2141983738
1.2271336719
1.2390661215
1.2033546963
1.2064591712
1.2057884297
1.2047287145
1.2089316250
1.2061844946
1.2350103401
1.2383506984
1.2383707435
1.2344828538
1.2039011895
1.2293450073
1.2018806500
1.2256381695
1.2178728711
1.2398072681
1.2064590173
1.2057230518
1.2027860718
1.2056174202
1.2394555662
1.2325905850
1.2026367011
1.2352327596
1.2368277344
1.2028078266
1.2029798501
1.2055901390
1.2054287543
1.2244750225
1.2065947818
1.2117136503
1.2292851908
1.2039031270
1.2070128535
1.2326747017
1.2053979676
1.2188097630
1.2064533302
1.2334730647
1.2198089932
1.2064650696
1.2045648441
1.2070147460
1.2257398522
1.2242652866
1.2366110851
1.2054509829
1.2361546308
1.1990918836
1.2294873411
1.2148514516
1.2057212131
1.2343012657
1.2059202489
1.2307727984
1.2061778969
1.2063661714
1.2099578944
1.2064536260
1.2056174769
1.2065889621
1.2148520318
1.2089337703
1.2081536229
1.2024856382
1.2067290253
1.2053117697
1.2049726112
1.2033726028
1.2059012287
1.2066581080
1.2009682539
1.2382291732
1.2039549818
1.2058668099
1.2150112259
1.2064203653
1.2179479282
1.2076001074
1.1997577564
1.2365177279
1.2376167024
1.2047213109
1.1996833117
1.2372032206
1.2061827865
1.2122339023
1.2341544161
1.2054298991
1.2271375349
1.2316765263
1.2353671747
1.2044120592
1.2282971379
1.2357213525
1.2306570475
1.2210187222
1.2066266696
1.2137668829
1.2227745879
1.2326756667
1.2039895360
1.2037073263
1.2314321074
1.2352335226
1.1943241094
1.2264628605
1.2053658055
1.2358047983
1.2329689376
1.2243011711
1.1969492262
1.2357396259
1.2122118382
1.2024986324
1.2136146151
1.2026042262
1.2174198417
1.2054185886
1.2072386681
1.2394935136
1.2043023901
1.2111693168
1.2033815799
1.2388314571
1.2040198914
1.2295037899
1.2065185556
1.2116070865
1.2383208160
1.2350143288
1.1768583151
1.2106735882
1.2058337359
1.2375276784
1.1900780750
1.2227749311
1.2046055309
1.2322699683
1.2061752551
1.2044128120
1.2057229144
1.2054501559
1.2380274589
1.2210103679
1.2062307228
1.2064598532
1.2033652233
1.1832371843
1.2393812780
1.2064154863
1.2073650388
1.2116071948
1.1936933654
1.2107436170
1.2076019919
1.2045650573
1.2047226052
1.2058652463
1.2376435071
1.2399840137
1.2359530203
1.2296531246
1.2067238624
1.2123565634
1.2121048027
1.2046566404
1.2394422093
1.2365192485
1.2150115239
1.2090522350
1.2389162626
1.1821793888
1.2032949937
1.2067342647
1.2047449648
1.1724421664
1.2035961261
1.2065925932
1.2049723243
1.2364140372
1.2036601738
1.2076183934
1.2053563524
1.2343415271
1.2386126094
1.2404315409
1.2348394617
1.1701585374
1.2032189329
1.2060130101
1.2041577885
1.2404013404
1.2408553373
1.2099582956
1.2122435179
1.2106147744
1.2017304565
1.2379164400
1.2003732557
1.2065396097
1.2420400395
1.2410661137
1.2051069497
1.2062556935
1.2389757857
1.2071152970
1.2091117601
1.1929576912
1.2399601243
1.2415353394
1.2406693173
1.2043598393
1.2009284930
1.1846468884
1.1898603396
1.1984470247
1.2398320318
1.2407215861
1.2372041934
1.2386964040
1.1696003485
1.2414573455
1.2420271224
1.1789047011
1.2399831337
1.2389684449
1.1768571548
1.2426417335
1.2039547297
1.2408917022
1.1983765938
1.2002902382
1.2427629331
1.1900771389
1.2419153987
1.2414970465
1.1996817277
1.2407140513
1.1965487026
1.1939064077
1.2400661727
1.2405623344
1.2043126976
1.2066727109
1.2066665201
1.2066575587
1.2066600148
1.2057706118
1.2063724616
1.2036990781
1.2044933180
1.2082796975
1.2076046069
1.2081005638
1.2082723527
1.2061153283
1.2044633335
1.2059533807
1.2023685479
1.2044891351
1.2057662130
1.2043542642
1.2024555361
1.2042659245
1.2073228306
1.2060585649
1.2015420994
1.2037383533
1.2062121374
1.2037742749
1.2042016463
1.2039321338
1.2017672056
1.2052088268
1.2045942138
1.2087651769
1.2052643638
1.2067543173
1.2023656157
1.2016879847
1.2043492171
1.2076195024
1.2061325765
1.2079321004
1.2069127316
1.2096628264
1.2135576070
1.2048094715
1.2040374881
1.2078309367
1.2142898535
1.2062088637
1.2037361411
1.2092071434
1.2023477159
1.2024989610
1.2087627935
1.2079747459
1.2162135082
1.2058903342
1.2113064819
1.2052015451
1.2086198968
1.2067396266
1.2070551344
1.2158308073
1.2159165728
1.2052634704
1.2107259413
1.2103459664
1.2089826805
1.2145086963
1.2096888622
1.2092693586
1.2130889960
1.2124591798
1.2079231502
1.2124733407
1.2029466477
1.2135326015
1.2148387158
1.2142360427
1.2069055364
1.2103653456
1.2162170381
1.2283792029
1.2263660936
1.2070378020
1.2113061192
1.2126247472
1.2158248240
1.2107464090
1.2114040009
1.2090551911
1.2152907237
1.2140846609
1.2274560922
1.2262539800
1.2159438391
1.2112915118
1.2119230096
1.2148398452
1.2176901779
1.2184052969
1.2104042740
1.2215133799
1.2189756910
1.2139766437
1.2097994111
1.2195741872
1.2118267487
1.2114074808
1.2124734501
1.2222487633
1.2142382137
1.2146355028
1.2186072421
1.2195943431
1.2216143186
1.2205133023
1.2124329449
1.2099051105
1.2208801736
1.2129855279
1.2029455254
1.2197748718
1.2126246421
1.2152939800
1.2169950729
1.2159418513
1.2250960817
1.2167324818
1.2272378563
1.2284583514
1.2118996631
1.2263815260
1.2130975901
1.2185541537
1.2249424226
1.2173929689
1.2283939966
1.2273428336
1.2219660973
1.2209255188
1.2098790958
1.2231954999
1.2216257461
1.2197796723
1.2180992768
1.2189826423
1.2142227614
1.2105481960
1.2176949287
1.2129875186
1.2163140928
1.2135267923
1.2209226636
1.2195775825
1.2222531117
1.2086303694
1.2186632126
1.2205696449
1.2118072022
1.2202005918
1.2184111419
1.2191642408
1.2159937865
1.2183616265
1.2113798000
1.2230552271
1.2251103465
1.2170834894
1.2155801262
1.2173954492
1.2124524665
1.2167362486
1.2244819548
1.2260922411
1.2243914469
1.2238552560
1.2171153114
1.2310833784
1.2261363194
1.2154533593
1.2139833474
1.2232907884
1.2179102255
1.2175634626
1.2272577234
1.2252460107
1.2251869311
1.2169846525
1.2316468286
1.2186636119
1.2222000917
1.2303046744
1.2231999777
1.2205778807
1.2248551401
1.2163177844
1.2156803135
1.2292364318
1.2181054051
1.2221478432
1.2105295826
1.2259557817
1.2142096180
1.2293208466
1.2196965402
1.2209274620
1.2243965889
1.2316472599
1.2200787236
1.2232942805
1.2176097364
1.2225043575
1.2229903758
1.2154559937
1.2020731338
1.2175671990
1.2238668910
1.2137944487
1.2155832657
1.2252361389
1.2316808503
1.2241050277
1.2213484248
1.2168425900
1.2261126835
1.2000211636
1.2236166374
1.2124348954
1.2259587535
1.2204786045
1.2281699321
1.2019467025
1.2294741184
1.2243113449
1.2266830220
1.2231825130
1.2195227118
1.2302684713
1.2294191962
1.2310796194
1.2259806259
1.2285893816
1.2182512337
1.2254793215
1.2227135004
1.2292577858
1.2298517608
1.2212283179
1.2303159463
1.2280606079
1.2200839000
1.2020735023
1.2230002723
1.2275230541
1.1996604938
1.2279585256
1.2241034509
1.2005735150
1.2224508830
1.2183503040
1.2267559247
1.1978151078
1.2252911347
1.2019482412
1.2294205780
1.2265802107
1.2294228109
1.2028703548
1.2182542205
1.2266890477
1.2226124024
1.1982350099
1.2281937203
1.2284938421
1.1964120730
1.2294242413
1.2243197719
1.2269997965
1.2285946158
1.2200525082
1.1988564407
1.2162023600
1.2266595361
1.2306500069
1.2303182686
1.2275323154
1.2017175974
1.2292249095
1.2302499026
1.2261607956
1.2239720998
1.2280858452
1.2300871906
1.2008226469
1.2271102903
1.2286701394
1.2004608201
1.2025715982
1.2302861411
1.2254515841
1.2028746440
1.1964087351
1.2050244936
1.1989466059
1.2253052681
1.2312204931
1.1988535579
1.1972959956
1.2317295737
1.2252500348
1.2267800633
1.1970903263
1.2287185357
1.2062628356
1.1990151399
1.2178220271
1.2279798925
1.1995828059
1.2036712473
1.2278486574
1.2312984464
1.1975819373
1.2315060401
1.2261626683
1.2034806786
1.2296199098
1.2307469248
1.2245725707
1.2302527797
1.2299477775
1.2299444502
1.2313996278
1.2004880351
1.2013730972
1.2265152937
1.2004581228
1.2266817917
1.2017169190
1.2306510774
1.2161961326
1.2271117904
1.2305253512
1.2282377968
1.2292257680
1.2311228330
1.2002198322
1.2317537799
1.1971460901
1.2233465590
1.1990138542
1.1972928830
1.2309173698
1.2310299426
1.2316208107
1.2070695935
1.2315159671
1.2043559102
1.1984030866
1.2317311318
1.1995803417
1.2252638179
1.1982725850
1.1986372203
1.2305299159
1.2278498610
1.2076778966
1.2273528056
1.2055066835
1.2312208739
1.1971546509
1.1954161035
1.2304519593
1.2313713834
1.2013711789
1.2225566942
1.2307474223
1.1986761859
1.2004867319
1.2245856694
1.1953875764
1.2299470267
1.2314398287
1.1997109490
1.2282393837
1.2102892421
1.2208905963
1.2316824738
1.2086231427
1.1971508932
1.2309176704
1.2320239889
1.1982683061
1.2316222327
1.2273547500
1.2313539611
1.1956505706
1.2310304487
1.2233536074
1.1967825801
1.2319116840
1.2288785289
1.1977617357
1.2309135445
1.2120271024
1.2321703012
1.1966684770
1.2201658903
1.2317224444
1.1954872783
1.1944077890
1.2091692068
1.2318446794
1.2225628654
1.1956078384
1.1943387482
1.1986733041
1.2137393274
1.2316318935
1.2318286751
1.1997423090
1.1956461939
1.1967789290
1.1954490206
1.2321716748
1.2313543361
1.1987706846
1.2320684830
1.2107419015
1.2288801168
1.2317119509
1.2208904118
1.1961100573
1.1953190686
1.2322315082
1.1999734831
1.2155700265
1.2123523592
1.2321209615
1.2317250429
1.1945091434
1.2316345580
1.2318146050
1.2318422341
1.2184732073
1.1943263330
1.2317067390
1.2176502392
1.2006658333
1.2060065993
1.2012573345
1.2038469597
1.2140666563
1.1953143599
1.2150424074
1.1970480037
1.2081310178
1.2017924164
1.1997388045
1.2119193094
1.1959465831
1.1969108727
1.2320689878
1.2001450193
1.1987416032
1.2049823281
1.2027253884
1.2135015117
1.2070239492
1.2016425827
1.2105439280
1.1961054581
1.1979444344
1.1987663875
1.2321834775
1.2153779686
1.2160024697
1.2318176472
1.2310079783
1.2093001977
1.2318452502
1.2285060197
1.2199258444
1.2327679703
1.2324627965
1.2327127969
1.2248485608
1.2170773985
1.2318582861
1.2318502892
1.2299047625
1.2225539857
1.2323220727
1.2328197610
1.2329218549
1.2267905477
1.2117775885
1.2066650899
1.2033085173
1.1976379079
1.2081374186
1.2110400400
1.2017892965
1.2150433898
1.2012550198
1.1988337115
1.2141006289
1.2050637566
1.2024436770
1.1970432231
1.2077650336
1.2031343135
1.2054875562
1.1994516396
1.2103671029
1.2059133275
1.2032374919
1.1969061489
1.2073876335
1.2098828336
1.2005281941
1.2132968740
1.2125147537
1.2041402323
1.2006570188
1.2065663185
1.2027229892
1.2044140306
1.1987368024
1.2301040820
1.2089454684
1.2143972095
1.2193687907
1.2248613108
1.2288694852
1.2234484872
1.2328228304
1.2327756046
1.2334803073
1.2182073586
1.2322084730
1.2334637008
1.2316339424
1.2332061376
1.2090234734
1.2321869666
1.2318853100
1.2272711823
1.2288421857
1.2161725351
1.2222985102
1.2270275429
1.2304039451
1.2209105133
1.2324159021
1.2327140506
1.2329878702
1.2153803808
1.2326226103
1.2336690946
1.2325614940
1.2335758266
1.2311143393
1.2256209401
1.2069023369
1.2046489918
1.2012827949
1.1988288812
1.2040812366
1.2063448923
1.2110705841
1.2128618031
1.2059529494
1.2141028504
1.2044251256
1.2076428761
1.2097709663
1.2080505038
1.2033048111
1.2064793070
1.2046691283
1.2006520681
1.2025283469
1.2054670786
1.2099493998
1.2112285910
1.2053294216
1.2124189028
1.2041365661
1.2072692831
1.2087729837
1.2071841832
1.2022255474
1.2186150526
1.2276868771
1.2247088430
1.2327846984
1.2175807854
1.2338792474
1.2307354240
1.2081063321
1.2326367816
1.2335824439
1.2342071521
1.2342405991
1.2132456121
1.2089610646
1.2291488764
1.2233616155
1.2321488303
1.2334969768
1.2218569748
1.2257448676
1.2271280491
1.2332827555
1.2144001725
1.2342942326
1.2293422135
1.2318245333
1.2331825068
1.2344159110
1.2337572612
1.2151152352
1.2308136639
1.2206038505
1.2331676778
1.2334677420
1.2364213650
1.2243623365
1.2115848308
1.2333404313
1.2068277376
1.2046442884
1.2364223552
1.2367062245
1.2066797136
1.2226504010
1.2083114384
1.2078361304
1.2327293879
1.2355053225
1.2369406027
1.2030051328
1.2099022981
1.2128651782
1.2064181795
1.2066469646
1.2055080500
1.2175317014
1.2160319020
1.2297285805
1.2054662781
1.2285518326
1.2353413978
1.2056890442
1.2361462061
1.2223217381
1.2099061877
1.2323558836
1.2062405925
1.2037693077
1.2361180579
1.2370233330
1.2066506895
1.2257943647
1.2073480454
1.2073404004
1.2337688325
1.2348826910
1.2366020179
1.2025231787
1.2090205048
1.2111441467
1.2061386678
1.2065849268
1.2053247643
1.2152560705
1.2183647032
1.2282621295
1.2042409799
1.2308597056
1.2361679445
1.2057888921
1.2028223157
1.2349987839
1.2122266956
1.2312461738
1.2100600640
1.2349080616
1.2293397439
1.2342546863
1.2057913875
1.2047575070
1.2033907888
1.2344763810
1.2018817821
1.2056981831
1.2178715394
1.2343025562
1.2167187253
1.2043201717
1.2333102811
1.2091087957
1.2335030606
1.2068602015
1.2325839880
1.2083687917
1.2231048896
1.2279388507
1.2034859409
1.2244740720
1.2028079674
1.2345602878
1.2141952654
1.2297521533
1.2111686912
1.2351292437
1.2311436900
1.2342138166
1.2070971569
1.2061521728
1.2024328804
1.2349548249
1.2023148350
1.2058406671
1.2213617713
1.2339012933
1.2132491563
1.2043019651
1.2324309050
1.2081162309
1.2340314052
1.2336893008
1.2200616115
1.2257438424
1.2033545182
1.2271307530
1.2188157560
1.2363422605
1.2333818352
1.2355539261
1.2198080372
1.2226522763
1.2257383881
1.2299029321
1.2068434024
1.2363509884
1.2337972634
1.2351309660
1.2363443693
1.2191695745
1.2071012624
1.2337941958
1.2224149358
1.2160333241
1.2255165325
1.2120144884
1.2247016223
1.2062241133
1.2356660032
1.2369481107
1.2302904297
1.2365158371
1.2337915360
1.2343000209
1.2355439167
1.2045196278
1.2152498813
1.2353437214
1.2084051439
1.2141134246
1.2153039781
1.2382250009
1.2376130602
1.2255177772
1.2307713587
1.2377454668
1.2327313944
1.2367103555
1.2377896515
1.2056838658
1.2115895695
1.2285537314
1.2305331556
1.2370924879
1.2210549307
1.2371919162
1.2344113994
1.2350416708
1.2356898789
1.2174745110
1.2193006038
1.2234778925
1.2320319567
1.2066083200
1.2364312635
1.2349593384
1.2355574285
1.2214671880
1.2069854156
1.2345882425
1.2255146636
1.2132053385
1.2132043153
1.2274300601
1.2061337703
1.2361194872
1.2369698991
1.2320205766
1.2358184733
1.2331986048
1.2350796769
1.2042356029
1.2189253354
1.2276857242
1.2342091657
1.2076642410
1.2120160955
1.2380223890
1.2372461622
1.2272773215
1.2290935426
1.2375847652
1.2308611532
1.2361705339
1.2382130355
1.2050689262
1.2096702281
1.2257956080
1.2317375870
1.2063568995
1.2342910596
1.2375266036
1.2388292599
1.2349623781
1.2072833271
1.2047261926
1.2316696428
1.2023139183
1.2282964357
1.2281382836
1.2227415171
1.2079484231
1.2394912096
1.2062928330
1.2047548133
1.2064683325
1.2349972669
1.2027911965
1.2059366898
1.2389147081
1.2338991404
1.2029082004
1.2337185932
1.2377045016
1.2028225501
1.2033329953
1.2062468730
1.2062476140
1.2061037018
1.2158415128
1.2280670365
1.2388570476
1.2032203045
1.2075490307
1.2057214743
1.2060912819
1.2137650268
1.2270359223
1.2037188673
1.2019487144
1.2083414217
1.2039563188
1.2343512878
1.2064819432
1.2348027994
1.2383195512
1.2383464928
1.2345522640
1.2046887219
1.2300582645
1.2024315341
1.2260205419
1.2194282614
1.2075495467
1.2394395868
1.2060007725
1.2061491219
1.2064568670
1.2349154426
1.2024991201
1.2061475302
1.2393112443
1.2329430302
1.2037165847
1.2352625012
1.2369187812
1.2028596576
1.2033896855
1.2058412368
1.2028308327
1.2058606758
1.2122306547
1.2256377250
1.2390517860
1.2034859295
1.2056838484
1.2070937797
1.2039474864
1.2106445049
1.2296198419
1.2053535670
1.2029099631
1.2068675197
1.2328618576
1.2104739457
1.2062880195
1.2059367598
1.2191702433
1.2057155639
1.2337984814
1.2170662896
1.2106479849
1.2093830570
1.2204001429
1.2012384386
1.2069234691
1.2062466917
1.2375552825
1.2040997046
1.2264396278
1.2024910979
1.2068697667
1.2064704889
1.2264413030
1.2282640581
1.2247027377
1.2018884699
1.2356628571
1.2361298117
1.2188092902
1.2152582620
1.2375593420
1.2039650611
1.2048528224
1.2363437250
1.2348865156
1.2165586061
1.2010373749
1.2188137487
1.2063577024
1.2299042404
1.2301306508
1.2150046357
1.2156463738
1.2366564904
1.2104312280
1.1958178872
1.2362681341
1.2377722725
1.2183657791
1.2346737845
1.2384043701
1.2063142887
1.2007563440
1.2346750000
1.2366714844
1.2063561164
1.2119222838
1.2313509725
1.2057974057
1.2064651763
1.2359999983
1.2106470994
1.2059949161
1.2061471957
1.2168127097
1.2056784302
1.2320331770
1.2150053909
1.2294862015
1.2083441865
1.2091558237
1.2227932298
1.2024943530
1.2074153884
1.2062557190
1.2043750864
1.2013766595
1.2061051723
1.2077488126
1.2216450243
1.2284376989
1.2218789359
1.2002910874
1.2368689450
1.2361532136
1.2377502199
1.2045288434
1.2053474167
1.2352228973
1.2147229387
1.1997456755
1.2065646381
1.2274312954
1.2384007924
1.2168122368
1.2173822574
1.2087072521
1.1983777422
1.2371937558
1.2381411818
1.2048524259
1.1980598751
1.2355567247
1.2377921634
1.2064802715
1.2124426898
1.2327194017
1.2062073021
1.2064525298
1.2344162126
1.2058613630