<VTKFile type="UnstructuredGrid" version="0.1">
	<UnstructuredGrid>
		<Piece NumberOfPoints="1862" NumberOfCells="3498">
			<CellData>
				<DataArray type="Int32" Name="type" NumberOfComponents="1" Format="ascii">
0
0
0
0
0
0
0
0
0
0
0
0
0
0
0
0
1
0
0
1
0
0
0
0
0
0
0
0
0
0
0
0
0
1
0
0
0
0
0
0
0
0
0
0
0
0
0
0
0
0
1
0
0
0
0
0
0
0
0
0
0
1
0
0
0
0
0
0
0
0
0
0
0
0
0
0
0
0
0
0
0
0
0
0
0
0
0
0
0
0
0
0
0
0
0
0
0
0
0
0
0
0
0
0
0
0
0
0
0
0
0
0
0
0
0
0
0
0
0
0
0
0
0
1
0
0
0
0
0
0
0
0
0
0
0
0
0
0
0
0
0
0
0
0
0
0
0
0
0
0
0
1
0
1
1
0
0
0
0
0
0
0
0
0
0
0
0
0
1
0
1
0
0
0
0
1
0
0
0
0
0
0
0
0
1
1
0
0
0
0
0
1
0
0
0
0
0
0
0
0
1
0
0
0
0
0
0
0
0
0
0
0
0
0
0
0
0
0
0
0
0
0
0
0
0
0
0
0
0
0
0
0
0
1
0
0
0
0
0
0
0
0
0
0
0
0
0
0
0
0
0
0
0
0
0
0
0
0
0
0
0
0
0
0
0
0
0
0
0
0
0
0
0
0
0
0
0
0
0
0
0
1
0
0
0
0
0
0
0
0
0
0
0
0
0
0
0
0
0
0
0
0
0
0
0
0
0
0
0
0
0
0
0
0
0
0
0
0
0
0
0
0
0
0
0
0
0
0
0
0
0
0
1
0
0
0
0
0
0
0
0
0
0
0
0
0
0
0
0
0
0
0
0
0
0
0
0
0
0
0
0
0
0
0
0
0
0
0
0
0
0
0
0
0
0
0
0
0
0
0
0
0
0
0
0
0
0
0
0
0
1
0
0
0
0
0
0
0
0
0
0
0
0
0
0
0
0
0
0
0
0
0
0
0
0
0
0
0
0
0
0
0
0
0
0
0
0
0
0
0
0
0
0
0
0
0
0
0
0
0
0
0
0
0
0
0
0
0
0
0
0
0
0
0
0
0
0
0
0
0
0
0
0
0
0
0
0
0
0
0
0
0
0
0
0
0
0
0
0
0
0
0
0
0
0
0
0
0
0
0
0
0
0
0
0
0
0
0
0
0
0
0
0
0
0
0
0
0
0
0
0
0
0
0
0
0
0
0
0
0
0
0
0
1
0
0
0
0
0
0
0
0
0
0
0
0
0
0
0
0
0
0
0
1
0
0
0
0
0
0
0
0
0
0
0
0
0
0
0
0
0
0
0
0
0
0
0
0
0
0
0
0
0
0
0
0
0
0
0
0
0
0
0
0
0
0
0
0
0
0
0
0
0
0
0
0
0
1
0
0
0
0
0
0
0
0
0
0
0
0
0
0
0
0
0
0
0
0
0
0
0
1
0
0
0
0
0
0
0
0
0
0
0
0
0
0
0
0
0
0
0
1
0
0
0
1
0
0
0
0
0
0
0
0
0
0
0
0
0
0
0
0
0
0
0
0
0
0
0
0
0
1
0
0
0
0
0
0
0
1
0
0
0
0
0
0
0
0
0
0
0
0
0
0
0
0
0
0
0
0
0
0
0
0
0
0
1
0
0
0
0
0
0
0
1
0
0
0
0
0
0
1
0
0
0
0
0
0
0
0
0
0
0
0
0
0
0
0
0
0
0
0
0
0
0
0
0
0
0
0
0
0
0
0
0
0
0
0
0
0
1
0
0
0
0
0
1
0
0
0
0
0
0
0
1
0
0
0
0
0
0
0
0
0
0
0
0
0
1
0
0
0
0
0
0
0
0
0
0
0
0
0
0
0
0
0
0
0
0
0
0
0
0
0
0
0
0
0
0
0
0
0
0
0
0
0
0
0
0
0
0
0
0
0
0
0
0
0
0
0
0
0
1
0
0
0
0
0
0
0
0
0
0
0
0
0
0
0
0
0
0
0
1
0
0
0
0
0
0
0
0
0
1
0
0
0
0
0
0
0
0
0
0
0
0
0
0
0
0
0
0
0
0
0
0
0
0
0
0
0
0
0
1
0
1
0
0
0
0
0
0
0
0
0
0
0
0
0
0
0
0
0
0
0
0
0
0
0
0
0
0
0
1
0
0
0
1
0
0
0
0
0
0
0
0
0
0
0
0
0
0
0
0
0
0
0
0
0
0
0
0
0
0
0
0
1
0
0
0
0
0
0
0
0
0
0
0
0
0
0
0
0
0
0
0
0
0
0
0
0
0
1
0
0
0
0
0
0
0
0
0
0
0
0
0
0
0
0
0
0
0
0
0
0
0
1
0
0
0
0
0
0
1
0
0
0
0
0
0
0
0
0
0
0
1
0
0
0
0
0
0
0
0
0
0
0
0
0
0
0
0
0
0
0
0
1
0
0
0
0
0
0
0
0
0
0
0
1
0
0
0
0
0
0
0
0
0
0
0
0
0
0
0
0
0
0
0
0
0
1
0
0
0
0
0
0
0
0
0
1
1
0
1
0
1
0
0
0
0
0
0
0
0
0
0
0
1
0
0
0
0
0
1
1
0
0
0
0
0
0
1
0
0
0
0
0
1
1
1
0
0
0
0
0
0
0
0
0
0
0
0
1
1
0
0
1
0
0
0
0
0
1
0
0
0
1
0
1
0
0
0
0
0
0
0
1
0
0
0
0
0
0
0
1
0
0
1
0
0
0
0
0
0
0
0
0
0
0
0
0
0
0
1
0
0
0
0
0
0
0
0
0
0
0
0
0
0
0
0
0
0
0
0
0
0
0
0
0
0
0
0
0
0
0
0
0
0
0
0
1
0
0
0
0
0
0
1
0
0
0
1
0
0
0
0
0
0
0
0
0
0
0
1
0
0
0
0
0
0
0
0
0
0
0
0
0
0
0
0
0
0
0
0
0
0
0
0
0
0
0
0
0
0
0
0
0
0
0
0
0
0
0
0
1
1
0
0
0
0
0
0
0
0
0
0
0
0
0
1
0
0
0
0
0
0
0
0
0
0
0
0
0
0
0
0
0
0
0
0
0
0
0
0
0
0
0
0
0
0
0
0
0
0
0
0
0
0
0
0
0
0
0
0
0
0
0
0
0
0
0
0
0
0
0
0
0
0
0
0
0
0
0
0
0
0
0
0
0
0
0
0
1
1
0
0
0
0
0
0
0
0
1
0
0
0
0
0
0
0
0
0
0
0
0
0
0
0
0
0
0
0
0
0
0
0
1
0
0
0
0
0
0
0
0
0
0
0
0
0
0
0
0
1
0
0
0
0
0
0
0
0
0
0
0
0
0
0
0
0
0
0
0
0
0
0
0
0
0
0
0
0
0
0
0
0
0
0
0
0
0
0
0
0
0
0
0
0
0
0
0
0
0
0
0
0
0
0
0
0
0
0
0
0
0
0
0
0
0
0
0
0
0
0
0
0
0
0
0
0
0
0
0
0
0
0
0
0
0
0
0
0
0
0
1
1
0
0
0
0
0
1
0
0
0
0
0
0
0
0
0
0
0
0
1
0
0
0
0
0
0
0
0
0
0
0
0
0
0
0
0
0
0
0
0
0
0
0
0
0
0
0
0
0
0
0
0
0
0
0
0
0
0
0
0
0
0
0
0
0
0
0
0
0
0
0
0
0
1
0
1
0
0
0
0
0
0
0
0
0
0
0
0
0
0
0
0
0
0
1
0
0
0
0
0
0
0
0
0
0
0
0
0
0
0
0
0
0
0
0
0
0
0
0
0
0
0
0
0
0
0
0
0
0
0
0
0
0
0
0
0
0
0
0
0
0
0
0
0
0
0
0
0
0
0
0
0
0
0
0
0
0
0
0
0
0
0
0
0
0
1
0
0
0
0
0
0
0
0
0
0
1
0
0
0
0
0
0
0
0
0
0
0
0
0
0
0
0
0
0
0
0
0
0
0
0
0
0
0
0
0
0
0
0
0
0
0
0
0
1
0
0
0
0
0
0
0
0
0
0
0
0
0
0
0
0
0
0
0
0
0
0
0
0
0
0
0
0
0
0
0
0
0
0
0
0
0
0
0
0
0
0
0
0
0
0
0
0
0
0
0
0
0
0
0
0
0
0
0
0
0
0
0
0
0
0
0
0
0
0
0
0
0
0
0
0
0
0
0
0
0
1
0
0
0
0
0
0
0
0
0
0
0
0
0
0
0
0
0
0
0
0
0
0
0
0
0
0
0
0
0
0
0
0
0
0
0
0
0
0
0
0
0
0
0
0
0
0
0
0
0
0
0
0
0
0
0
0
0
0
0
0
0
0
0
0
0
0
0
0
0
0
0
0
0
0
0
0
0
0
0
0
0
0
0
0
0
0
0
0
0
0
0
0
0
0
0
0
0
0
0
0
0
0
0
0
0
0
0
0
0
0
0
0
0
0
0
0
0
0
0
0
0
0
0
1
0
0
0
0
0
0
0
0
0
0
0
0
0
0
0
0
0
0
0
0
0
0
0
0
0
0
0
0
0
0
0
0
0
0
0
0
0
0
0
0
0
0
0
0
0
0
0
0
0
0
0
0
0
0
0
0
0
0
0
0
0
0
0
0
0
0
0
0
0
0
0
0
0
0
0
0
0
0
0
0
0
1
0
0
0
0
0
0
0
1
0
0
0
0
0
0
0
0
0
0
0
0
0
0
0
0
0
0
0
0
0
0
0
0
0
0
0
0
0
0
0
0
0
0
0
0
0
1
0
0
0
0
0
0
0
0
0
0
0
0
0
0
0
0
0
0
0
0
0
1
0
0
0
0
0
0
0
0
0
0
0
0
1
1
0
0
0
0
0
0
0
0
0
0
0
0
0
0
0
1
1
0
1
0
0
0
0
0
0
0
0
0
1
0
0
0
0
0
0
1
0
0
0
0
0
0
0
0
0
0
1
0
0
0
0
1
0
1
0
0
0
0
0
0
0
1
0
0
0
1
0
0
0
1
0
1
1
0
0
1
1
0
0
0
1
0
0
0
1
0
0
0
0
0
0
0
0
0
1
0
0
0
0
0
0
1
0
0
0
0
0
0
0
0
0
0
0
0
0
0
0
0
0
0
0
0
0
0
0
0
0
0
0
1
0
0
1
0
0
0
0
0
0
0
0
0
0
0
0
0
0
0
0
0
0
1
0
0
1
0
0
0
0
0
0
0
0
0
0
0
1
0
0
1
0
0
0
0
0
0
0
0
0
0
0
1
1
0
0
0
0
0
0
0
0
0
0
0
0
1
0
0
0
0
0
0
0
0
0
0
0
0
0
0
0
0
0
1
0
0
0
0
0
0
0
0
0
0
0
0
0
0
0
0
0
1
0
0
0
0
0
0
0
0
0
0
0
0
0
0
0
0
0
0
0
0
0
0
0
0
0
0
0
0
0
0
0
0
0
0
0
0
0
0
0
0
1
0
0
0
0
0
0
0
0
0
0
0
0
0
0
0
0
0
0
0
0
0
0
0
0
0
0
0
0
0
0
0
0
0
0
0
0
0
0
0
0
0
0
0
0
0
1
0
0
0
0
0
0
0
0
0
0
0
0
0
0
0
0
0
0
0
0
0
0
0
0
0
0
0
0
0
0
0
0
0
0
0
0
0
0
0
0
0
0
0
0
0
0
0
1
0
0
0
0
0
0
0
0
0
0
1
0
0
0
0
0
0
0
0
0
0
0
0
0
0
0
1
0
0
1
0
0
0
0
0
0
0
0
0
0
0
0
0
0
0
0
0
0
0
0
0
0
0
1
0
0
0
0
0
0
0
0
0
0
0
0
0
0
0
0
0
0
0
0
0
0
0
0
0
0
0
0
0
0
0
0
0
0
0
1
0
0
0
0
0
0
0
0
0
0
0
0
0
0
0
0
0
0
0
0
0
0
0
0
0
0
0
0
0
0
0
0
0
0
0
0
0
0
0
0
0
0
0
0
0
0
0
0
0
0
0
0
0
0
0
0
0
0
0
0
0
0
0
0
0
0
0
0
0
0
0
0
0
0
0
0
1
0
0
0
0
0
0
0
0
0
0
0
0
0
0
0
0
0
0
0
0
0
0
0
0
0
0
0
0
0
0
0
0
0
0
0
0
0
0
0
1
0
0
0
0
0
0
0
0
0
0
0
0
1
1
0
0
0
0
0
0
0
0
0
0
0
0
0
0
0
0
0
0
0
0
0
0
0
0
0
0
0
0
0
0
0
0
0
0
0
0
0
0
0
0
0
0
0
0
0
0
0
0
0
0
0
0
0
0
0
0
0
0
0
0
0
0
0
0
0
0
0
0
0
0
0
0
0
0
0
0
0
0
0
0
0
0
0
0
0
0
0
0
0
0
0
0
0
0
0
0
0
0
0
0
0
1
0
1
0
0
0
0
0
0
0
1
1
1
1
0
0
0
0
0
0
0
0
0
0
0
0
0
0
0
0
0
0
0
0
0
0
0
0
0
0
0
0
1
1
0
0
0
0
0
0
0
0
0
0
0
0
0
0
0
0
0
0
1
0
0
0
0
0
0
0
1
1
0
1
1
0
0
1
0
0
0
0
0
0
0
1
0
1
0
0
0
0
0
0
0
0
0
0
0
0
0
0
0
0
0
0
0
0
0
0
0
0
0
0
0
1
1
0
0
0
1
1
0
0
0
0
1
0
0
1
0
1
0
0
0
0
0
1
0
0
0
1
0
0
0
0
0
0
0
0
0
0
0
0
0
0
0
0
0
0
0
0
0
0
0
0
0
0
0
1
0
0
0
0
0
0
1
0
0
0
0
0
0
0
0
0
0
0
0
0
0
0
0
0
0
0
0
0
0
0
0
0
0
0
0
0
1
0
1
0
0
0
0
0
0
0
1
0
0
0
0
0
0
0
0
0
0
0
1
0
0
0
0
0
0
0
0
0
1
0
0
0
0
0
0
0
1
0
0
0
0
0
0
0
1
0
0
0
0
0
0
0
0
0
0
0
0
0
0
0
0
0
0
0
1
0
1
0
0
0
0
0
1
0
0
0
0
0
0
0
0
0
0
0
0
0
0
0
0
0
0
0
0
0
0
0
0
0
1
0
1
0
0
0
0
0
0
0
0
0
1
0
0
0
0
0
1
0
0
0
0
0
0
0
0
0
0
0
0
0
0
0
1
0
0
0
0
0
0
0
0
1
0
0
0
0
0
0
0
0
0
0
0
0
0
0
0
0
0
0
0
0
0
0
0
0
0
0
0
0
0
0
1
0
0
0
0
0
0
0
0
0
0
0
0
0
0
0
0
1
0
0
0
0
0
0
0
0
1
0
0
0
0
0
0
0
0
0
1
0
0
0
0
0
1
0
0
0
0
0
0
0
0
0
0
0
0
0
0
0
0
0
0
0
1
0
0
0
0
0
0
1
0
0
0
0
0
0
0
0
1
0
0
0
0
0
0
0
0
0
0
0
0
0
0
1
0
0
1
0
0
0
1
0
0
0
0
0
0
0
0
0
0
0
0
0
0
0
0
1
0
0
0
0
0
0
0
0
0
0
1
0
1
0
0
0
0
0
0
1
0
0
0
0
0
0
0
0
0
0
0
0
0
0
0
0
0
0
0
0
0
0
0
0
0
0
0
1
1
0
0
0
0
0
0
1
0
0
0
0
0
0
0
0
0
0
0
0
0
1
0
0
0
0
0
0
0
1
0
0
0
0
0
0
0
0
0
0
0
0
0
0
0
0
0
0
0
0
0
0
0
0
0
0
0
1
0
0
0
0
0
0
0
0
0
0
1
0
0
1
0
0
0
0
0
0
0
0
0
0
0
0
0
0
0
0
0
0
0
0
0
0
0
0
0
0
0
0
0
1
0
0
0
0
0
0
0
1
0
0
0
0
0
0
0
1
0
0
0
0
1
0
0
0
0
0
0
0
0
0
0
0
1
0
1
0
0
0
1
0
				</DataArray>
				<DataArray type="Float64" Name="h" NumberOfComponents="1" Format="ascii">
1.2474454164
1.2474559599
1.2473647141
1.2484721578
1.2467800366
1.2475545856
1.2474949332
1.2489358503
1.2482485509
1.2506156443
1.2491314966
1.2477898130
1.2473510872
1.2497780083
1.2483973775
1.2478052320
1.2483472590
1.2495420100
1.2470123497
1.2493613238
1.2475744973
1.2458929658
1.2452893376
1.2468557299
1.2488451034
1.2488962252
1.2428324244
1.2417538967
1.2455446771
1.2503592251
1.2499980830
1.2458137567
1.2453466532
1.2478464298
1.2471101160
1.2458913470
1.2474457542
1.2432245614
1.2403141353
1.2470045171
1.2459397157
1.2438965513
1.2436135433
1.2437743158
1.2462455216
1.2424839285
1.2439174822
1.2475683625
1.2518894465
1.2491305040
1.2475654659
1.2444916527
1.2444865070
1.2454227105
1.2453516062
1.2408406294
1.2436461057
1.2482559294
1.2478863898
1.2464437476
1.2503078929
1.2499694229
1.2515021344
1.2451941661
1.2422405566
1.2415459742
1.2464434559
1.2488758791
1.2495659050
1.2493762369
1.2481585666
1.2462374701
1.2404822709
1.2462397743
1.2471891440
1.2353555159
1.2479124351
1.2497041187
1.2477189270
1.2383257036
1.2520084953
1.2422675303
1.2580961975
1.2462704532
1.2366579241
1.2377888559
1.2529489586
1.2434268054
1.2494160681
1.2552502898
1.2527690881
1.2369596142
1.2505795608
1.2523094130
1.2402844318
1.2393277395
1.2408866965
1.2378015243
1.2393823773
1.2526201071
1.2566460423
1.2524635047
1.2427476011
1.2483112062
1.2522617639
1.2439067063
1.2376949665
1.2533942028
1.2491709358
1.2417262676
1.2508067582
1.2537421101
1.2514779808
1.2522187662
1.2450469770
1.2580864008
1.2441165891
1.2519189115
1.2554852267
1.2473949577
1.2521238049
1.2424589825
1.2346974493
1.2541024224
1.2508944325
1.2547272513
1.2463130056
1.2546994470
1.2573620727
1.2581350981
1.2555921985
1.2394866665
1.2485807388
1.2588995453
1.2519157345
1.2548892017
1.2502076456
1.2596465238
1.2544730395
1.2451780411
1.2553059592
1.2530360965
1.2568685731
1.2424978120
1.2366488373
1.2546195057
1.2476257011
1.2626363992
1.2536062829
1.2645958679
1.2508891223
1.2601155261
1.2608553445
1.2647941985
1.2534383615
1.2603789245
1.2628430480
1.2533406564
1.2641826556
1.2571551403
1.2431294250
1.2623967210
1.2481613171
1.2553993625
1.2542036369
1.2602204047
1.2397424116
1.2459782783
1.2556204461
1.2613448604
1.2620242802
1.2571827380
1.2641092704
1.2538374064
1.2374338894
1.2663199757
1.2402445691
1.2630248533
1.2655498220
1.2557071931
1.2597125121
1.2348740140
1.2572920008
1.2333949652
1.2573041746
1.2584733775
1.2371801099
1.2654148302
1.2563699241
1.2594118596
1.2326597378
1.2650972978
1.2584415302
1.2349259837
1.2661309115
1.2619627862
1.2546266346
1.2309577442
1.2330149915
1.2661392504
1.2594700123
1.2345262319
1.2588607526
1.2657888630
1.2299133906
1.2568663960
1.2452310127
1.2506428682
1.2316687463
1.2390528579
1.2305308491
1.2584380583
1.2556828777
1.2580162105
1.2480705541
1.2285087070
1.2421940229
1.2551586334
1.2330632817
1.2578551592
1.2309693824
1.2524953804
1.2359457681
1.2463758602
1.2334592568
1.2648944924
1.2583967772
1.2403930173
1.2295359090
1.2555165553
1.2655532579
1.2494249264
1.2371165990
1.2659185362
1.2632349206
1.2433632945
1.2279704190
1.2419502795
1.2588458501
1.2347854609
1.2252109375
1.2482415378
1.2553489754
1.2363990321
1.2488237063
1.2429765904
1.2562071291
1.2303552050
1.2452707081
1.2533068569
1.2384094510
1.2279844247
1.2540579238
1.2262392338
1.2231428494
1.2566148754
1.2396951039
1.2460305340
1.2580227993
1.2478190601
1.2312456948
1.2297187193
1.2376251779
1.2444186310
1.2347058924
1.2620367558
1.2638796959
1.2265803775
1.2654177320
1.2509379150
1.2570655429
1.2332287098
1.2539918982
1.2414747039
1.2446799261
1.2251138212
1.2338745827
1.2410712993
1.2477065119
1.2308239795
1.2569347947
1.2650441018
1.2639758064
1.2620922172
1.2540840437
1.2509290148
1.2382375929
1.2378113746
1.2543916465
1.2532215858
1.2392342137
1.2223686038
1.2451060229
1.2461188858
1.2295599344
1.2189661366
1.2316744360
1.2416482242
1.2508475318
1.2566206687
1.2545772546
1.2428281497
1.2248910001
1.2170004192
1.2207070929
1.2337264309
1.2218980762
1.2354587209
1.2518981900
1.2256148317
1.2388818389
1.2345771470
1.2643473958
1.2216515850
1.2554276543
1.2458535126
1.2255274914
1.2524185682
1.2625470407
1.2280723638
1.2420916162
1.2311355236
1.2490472418
1.2607755954
1.2303477685
1.2351723726
1.2384384002
1.2628084146
1.2424196472
1.2491913718
1.2554853565
1.2606489030
1.2638307173
1.2202961589
1.2456252653
1.2266499880
1.2523343637
1.2346413048
1.2566363903
1.2233461244
1.2120055445
1.2259810956
1.2519678253
1.2159581163
1.2411772509
1.2327862517
1.2425935535
1.2504475875
1.2497830798
1.2164270071
1.2104002663
1.2353261309
1.2387835629
1.2491441170
1.2517602525
1.2280987240
1.2193296085
1.2149195155
1.2303050972
1.2388278701
1.2430293784
1.2542391234
1.2545817158
1.2184953620
1.2145676041
1.2371937209
1.2042535296
1.2111271138
1.2267131488
1.2518799756
1.2284605487
1.2437533647
1.2477371765
1.2608985383
1.2435377987
1.2394805857
1.2592070135
1.2327986921
1.2534697975
1.2213459443
1.2164535219
1.2505018559
1.2629602727
1.2188288934
1.2468305514
1.2219394721
1.2272855817
1.2359718759
1.2313145885
1.1978813139
1.2622956775
1.2154068335
1.2398412960
1.1949625565
1.2588912278
1.2432305141
1.2283128631
1.2154551176
1.2095931344
1.1895275897
1.2266302615
1.2537082153
1.1902067259
1.2470958938
1.1912056549
1.2613301252
1.2502612096
1.2221754813
1.2318376283
1.1931638329
1.2355447803
1.2104672475
1.2420475523
1.2141185854
1.2291682713
1.2526172249
1.2492005580
1.2193655777
1.2392714983
1.2196126370
1.2034797948
1.1982241793
1.2382696913
1.2465519794
1.2523087221
1.2340744918
1.2574267902
1.2488948933
1.2402143525
1.2090698470
1.2218382381
1.2512071380
1.2325627381
1.2470000127
1.2240809025
1.2311624452
1.2380562582
1.2457399949
1.2551228045
1.2035544445
1.2128978424
1.2242555544
1.2339062865
1.2333550950
1.2093629660
1.2242291377
1.2249416737
1.2166512291
1.2381622324
1.2374198368
1.2300291317
1.2592313645
1.2518829673
1.2136457592
1.2113848503
1.1982241004
1.2483152622
1.2440987882
1.2219959814
1.2458497608
1.2457091367
1.2082534734
1.2229076844
1.2612542685
1.2149455715
1.2409434655
1.2297115461
1.2233465564
1.1901049604
1.2331907245
1.2573188705
1.2120836258
1.2482587061
1.2040717087
1.2114321420
1.2328617005
1.2433266721
1.1920012368
1.2451355238
1.2300729661
1.2257010899
1.2024476735
1.2282534022
1.2595337117
1.2330477972
1.2383221894
1.2516027040
1.2209500142
1.2370180075
1.2098578482
1.2133689890
1.2176998120
1.2421366886
1.2415689655
1.2283140917
1.2035728050
1.2173911464
1.2381800515
1.2446908707
1.2199268287
1.2247856445
1.2323472755
1.1966692761
1.2095941049
1.1895277234
1.2074695516
1.2283579435
1.2484976485
1.2042951674
1.2170488798
1.2209489804
1.2023285376
1.2229013079
1.2120862017
1.2044787734
1.2451362334
1.2278370171
1.2084546972
1.2428802641
1.2088218493
1.2023288026
1.2175897509
1.2131405533
1.2557441435
1.2203935059
1.2347492201
1.2150508174
1.2205312679
1.1990641779
1.1982322358
1.2337854508
1.2229093533
1.2261153286
1.2310828226
1.2331904232
1.1907966714
1.2415686642
1.2173935750
1.2484995443
1.1990642329
1.2024475907
1.1898527597
1.2020769056
1.2461801324
1.1935354351
1.2145309958
1.2220032625
1.2040728195
1.1910297529
1.2063461971
1.2481734849
1.1975622553
1.2259911286
1.1967209360
1.2394471633
1.2008295420
1.1984464026
1.2099723422
1.2408744814
1.2469679104
1.2001098025
1.2141371578
1.2440914805
1.2282540256
1.1931679704
1.2457416958
1.2074715919
1.2297091225
1.2192250588
1.2592225982
1.2038138467
1.2169980881
1.2292285869
1.2196245876
1.2196093859
1.2381130218
1.2071736099
1.2094261304
1.2228993370
1.1939353681
1.2074402981
1.2381641354
1.2247835887
1.2089015105
1.2135987537
1.2252281346
1.2551148681
1.2420502415
1.2249383089
1.2061135575
1.2574180434
1.1924163260
1.2021990327
1.1941213786
1.2063022764
1.2136436323
1.1931675873
1.2417300630
1.2419670049
1.1890865118
1.1939396144
1.1969311522
1.2409935477
1.2136543896
1.2340740552
1.2032367649
1.1947692611
1.2346517221
1.2491987996
1.1951042185
1.1973696415
1.2301012835
1.2318131080
1.2041783549
1.2094260380
1.2197105366
1.2198179101
1.2310834523
1.2038152739
1.1982331063
1.2203948734
1.2499929384
1.2052518901
1.2343526243
1.2428813343
1.2016567810
1.1997043272
1.2306108882
1.2394475585
1.2080819899
1.1947694395
1.2047437510
1.2062061573
1.1984469310
1.2088234060
1.2001109867
1.2259921783
1.2262087975
1.2326983334
1.2239351345
1.2172075869
1.2461822452
1.1989302947
1.1933289822
1.1922776180
1.2437519961
1.2288933964
1.1967210152
1.2005613772
1.2373382349
1.1971978514
1.2033985235
1.2356357995
1.2215008725
1.1894529818
1.1941579705
1.1927569448
1.2145325345
1.2239550877
1.2094405499
1.2396330591
1.2267266268
1.2215092829
1.2284332552
1.2346423876
1.2216375426
1.1913638081
1.1980719745
1.2314093991
1.2157459507
1.2376181033
1.2379444267
1.1907969044
1.2029159508
1.1919067379
1.2072442491
1.2256542801
1.2073304926
1.2074891359
1.2336178072
1.2319378404
1.1904586208
1.1942715381
1.2270654350
1.1991827381
1.2053803087
1.2036044029
1.2287371138
1.2333492687
1.2301253327
1.2030937805
1.2054178145
1.1987034449
1.2034998282
1.2067036393
1.2287522052
1.2297469339
1.2263212801
1.2276207954
1.1884421447
1.2306174452
1.2311747450
1.1977477503
1.2327022611
1.2311000555
1.1951048176
1.2316042530
1.1975627103
1.2327313506
1.2091052262
1.2061375736
1.2319271470
1.2041788918
1.2320338775
1.2355401619
1.2141379635
1.2364114160
1.2116268697
1.2078366962
1.2356482360
1.2392498708
1.2249857680
1.2469321597
1.2471516749
1.2471593744
1.2469403116
1.2482481342
1.2477849895
1.2491239163
1.2485881806
1.2468150896
1.2475485708
1.2467853792
1.2468231961
1.2482555444
1.2483879847
1.2474883757
1.2499505039
1.2485976029
1.2482543839
1.2488916772
1.2495333758
1.2484798938
1.2473695710
1.2470025943
1.2503515385
1.2483460765
1.2480451880
1.2489445017
1.2488919292
1.2488385822
1.2506243888
1.2476376281
1.2473624342
1.2474661900
1.2459915002
1.2456863114
1.2499593791
1.2499913402
1.2489020311
1.2478422638
1.2453346323
1.2458052825
1.2433780995
1.2470004678
1.2393562293
1.2483521934
1.2478141625
1.2436046641
1.2403097630
1.2480495360
1.2483549127
1.2459327430
1.2497859394
1.2493680349
1.2474708000
1.2452977568
1.2469608937
1.2459028979
1.2471815023
1.2476479736
1.2475787339
1.2456982227
1.2452959628
1.2421447855
1.2475660803
1.2460012644
1.2462420802
1.2475611448
1.2439093869
1.2417520227
1.2468603167
1.2455524864
1.2436445808
1.2398795845
1.2428455916
1.2468614639
1.2502249371
1.2393583578
1.2449244612
1.2476846455
1.2433907597
1.2444800552
1.2469621088
1.2505655056
1.2501109071
1.2453052563
1.2471854662
1.2466252936
1.2421453865
1.2458958118
1.2422367303
1.2432315562
1.2462806930
1.2471128191
1.2515029853
1.2488736244
1.2433676779
1.2474499265
1.2451916993
1.2449238839
1.2472824835
1.2471319623
1.2437797682
1.2462413456
1.2455232323
1.2462356311
1.2404699821
1.2488935731
1.2383886287
1.2413592727
1.2468645379
1.2507776137
1.2476884038
1.2438982996
1.2479114020
1.2481579242
1.2472847145
1.2471896465
1.2398852249
1.2415039720
1.2495645397
1.2475210284
1.2502335127
1.2493737335
1.2466284262
1.2462811990
1.2402557458
1.2433659228
1.2475807888
1.2461493975
1.2478271164
1.2518882449
1.2444962827
1.2501124919
1.2424864826
1.2422728141
1.2462667495
1.2438654689
1.2505677824
1.2491347594
1.2503088685
1.2499714308
1.2415101156
1.2511219212
1.2472839459
1.2478869204
1.2465626036
1.2455197341
1.2348374497
1.2385546320
1.2472831626
1.2475249502
1.2452253121
1.2453530713
1.2491624301
1.2488949737
1.2507796098
1.2408530436
1.2435120588
1.2479142301
1.2384011735
1.2454166144
1.2471319110
1.2464415014
1.2369542187
1.2482576364
1.2413632819
1.2505794105
1.2475797341
1.2483081196
1.2393793632
1.2438596730
1.2365511377
1.2461480856
1.2524624519
1.2453447944
1.2515533062
1.2451281318
1.2415451048
1.2566569141
1.2464516199
1.2478098524
1.2377982797
1.2515442562
1.2393259303
1.2449419073
1.2478372728
1.2526207227
1.2438958916
1.2402581787
1.2594466497
1.2435045468
1.2491709363
1.2537467271
1.2511230488
1.2479145282
1.2514770495
1.2452225585
1.2353654187
1.2493596209
1.2465614889
1.2497047719
1.2385658794
1.2532845762
1.2348462508
1.2508016572
1.2417309856
1.2491630418
1.2515536609
1.2594336486
1.2442776371
1.2515454893
1.2377949030
1.2424569239
1.2483359091
1.2478130475
1.2514888986
1.2449368818
1.2451272454
1.2366678905
1.2383303882
1.2529489354
1.2580806456
1.2520086799
1.2441228439
1.2477207898
1.2453605185
1.2521169690
1.2434326879
1.2365615429
1.2532833706
1.2394837359
1.2479091915
1.2510785265
1.2547325833
1.2504566209
1.2531864120
1.2494155680
1.2402845432
1.2523111841
1.2569346650
1.2552409588
1.2527675037
1.2542227329
1.2487065123
1.2508924251
1.2463161110
1.2493739286
1.2581403084
1.2427455774
1.2575313504
1.2464981182
1.2442714423
1.2514950813
1.2483342715
1.2526990183
1.2519093556
1.2548924614
1.2485826195
1.2522681126
1.2408938623
1.2366406224
1.2450876819
1.2530303014
1.2497672677
1.2510833078
1.2569283118
1.2522177183
1.2533891299
1.2499075828
1.2487090713
1.2531856546
1.2450440945
1.2536006512
1.2479241057
1.2568720181
1.2546911773
1.2580815654
1.2504566461
1.2546218052
1.2542186098
1.2377032071
1.2531189355
1.2338063967
1.2437459520
1.2610106306
1.2575240591
1.2526986668
1.2524105135
1.2586096958
1.2562150917
1.2540640934
1.2473921691
1.2465221616
1.2601176553
1.2519253350
1.2550839871
1.2554818414
1.2513634331
1.2508872290
1.2608591655
1.2534381467
1.2499131207
1.2546967938
1.2459743377
1.2541986360
1.2497684100
1.2632693554
1.2531244635
1.2551091890
1.2637477695
1.2428697823
1.2451096925
1.2541081332
1.2573595855
1.2431216553
1.2533756380
1.2347070790
1.2555896642
1.2514041491
1.2481582508
1.2562792474
1.2624031760
1.2547047841
1.2641867884
1.2540631955
1.2502136500
1.2588973129
1.2616702910
1.2409674336
1.2562056981
1.2593698332
1.2596426092
1.2641119200
1.2507798584
1.2526103458
1.2544728005
1.2513700871
1.2437710565
1.2524121391
1.2610075433
1.2338150976
1.2550825511
1.2613510056
1.2566643660
1.2586068165
1.2620268985
1.2538342484
1.2645914330
1.2572866792
1.2401089713
1.2533815072
1.2551141490
1.2589717802
1.2628329677
1.2646620811
1.2425086316
1.2626292449
1.2476294852
1.2557031982
1.2637412886
1.2514102746
1.2428863530
1.2567221268
1.2553106753
1.2597201307
1.2562773256
1.2402342239
1.2555772130
1.2451859762
1.2632644765
1.2565151906
1.2563643508
1.2603724505
1.2628397358
1.2526108775
1.2378960070
1.2616656794
1.2524077114
1.2507860434
1.2409854608
1.2572977190
1.2593645593
1.2647927467
1.2533440381
1.2566630386
1.2371658034
1.2367368046
1.2661326115
1.2397551219
1.2565203464
1.2589612141
1.2619741737
1.2567264771
1.2646589526
1.2555764879
1.2615225764
1.2575946125
1.2628286485
1.2401225098
1.2559861118
1.2650991244
1.2578561774
1.2554033472
1.2602118190
1.2349115380
1.2640761474
1.2571605590
1.2345152582
1.2664293620
1.2571888095
1.2588543498
1.2374458099
1.2657916622
1.2379116200
1.2556261608
1.2594632002
1.2524133660
1.2330028512
1.2664112418
1.2655478960
1.2550072718
1.2576004792
1.2559914483
1.2584318232
1.2640691470
1.2615129546
1.2564504294
1.2607269424
1.2348865616
1.2578546237
1.2663185956
1.2367484466
1.2592248556
1.2592760221
1.2630136934
1.2556795617
1.2316597114
1.2326719193
1.2655571260
1.2664275701
1.2594186645
1.2664088675
1.2653368793
1.2663928890
1.2334052355
1.2584796620
1.2654119198
1.2309624440
1.2562027733
1.2429738187
1.2534759335
1.2488249783
1.2309678788
1.2592828763
1.2271758755
1.2581359870
1.2363883251
1.2530516964
1.2550096865
1.2279598827
1.2584477267
1.2589396730
1.2607115161
1.2546294943
1.2582889841
1.2460304184
1.2515520224
1.2262328273
1.2396881121
1.2540560492
1.2303422792
1.2592317806
1.2588389562
1.2564549469
1.2648350537
1.2252834507
1.2299211212
1.2653326145
1.2509153575
1.2332158396
1.2663903687
1.2446474927
1.2308194340
1.2639859838
1.2569488948
1.2610148095
1.2382156808
1.2265818913
1.2539938007
1.2661356417
1.2477921380
1.2346927998
1.2654232030
1.2596724335
1.2620530041
1.2414455330
1.2305446289
1.2392321945
1.2509172412
1.2578609359
1.2316645882
1.2223629094
1.2530525453
1.2271825218
1.2534773928
1.2574344634
1.2219487109
1.2461219904
1.2543885628
1.2581418033
1.2390634208
1.2506431899
1.2452337230
1.2568714132
1.2330784897
1.2428295525
1.2518980075
1.2589465595
1.2354523481
1.2248811924
1.2551616735
1.2285187549
1.2207064297
1.2491342753
1.2571532528
1.2422007707
1.2515518182
1.2480718819
1.2582956723
1.2494420041
1.2280611336
1.2200275793
1.2266551206
1.2351579523
1.2423870959
1.2371345050
1.2596535393
1.2632234881
1.2628216027
1.2295406368
1.2659145024
1.2597753582
1.2491687484
1.2554926121
1.2359595558
1.2648284533
1.2555073732
1.2433912282
1.2464030742
1.2216601374
1.2311324263
1.2388562679
1.2458215993
1.2334695897
1.2583801504
1.2609981292
1.2643552923
1.2252860938
1.2648889295
1.2607934306
1.2524109489
1.2583208952
1.2524986971
1.2404161557
1.2346395514
1.2481544314
1.2553529059
1.2574396712
1.2519660739
1.2419516883
1.2252207364
1.2161678635
1.2425968047
1.2219487984
1.2482394247
1.2259736585
1.2159566381
1.2347951532
1.2509161540
1.2387849771
1.2491451624
1.2571594157
1.2554167330
1.2452694820
1.2279970985
1.2145698625
1.2460406994
1.2231477098
1.2491319282
1.2302999406
1.2184899885
1.2384150269
1.2533081488
1.2221842918
1.2411011766
1.2318345513
1.2650383637
1.2251094807
1.2537088310
1.2477337581
1.2219318442
1.2540825878
1.2583043847
1.2582352635
1.2613435626
1.2144220211
1.2312581784
1.2398186675
1.2338861714
1.2470735623
1.2620766568
1.2272907709
1.2376471850
1.2359582209
1.2638710202
1.2200240625
1.2566504922
1.2444515878
1.2509519088
1.2570518809
1.2592219611
1.2629699681
1.2164610921
1.2435116324
1.2297206306
1.2504897548
1.2597567796
1.2526234741
1.2218410298
1.2102435968
1.2392741511
1.2378122205
1.2481519713
1.2550028396
1.2490168492
1.2193609513
1.2167788967
1.2090695400
1.2295674621
1.2349867185
1.2465554645
1.2540480124
1.2532242822
1.2189709809
1.2161652858
1.2382716581
1.2291665886
1.2451028387
1.2104681674
1.2053513110
1.2311660684
1.2488940224
1.2266382536
1.2424790826
1.2446788030
1.2517331206
1.2195435161
1.2082545257
1.2378065524
1.2416462813
1.2508474018
1.2568785376
1.2498897504
1.2242255006
1.2219515749
1.2113824371
1.2337308578
1.2364801641
1.2452671130
1.2557518581
1.2554220269
1.2219062597
1.2170007826
1.2421975524
1.2339067375
1.2460376333
1.2074028471
1.2085766129
1.2294734492
1.2530216146
1.2309461467
1.2458974325
1.2457102414
1.1957570199
1.2595449111
1.2089567729
1.2456537308
1.1918268918
1.2563781330
1.2370090547
1.2606328001
1.2300717337
1.2270883234
1.2131860300
1.2516015127
1.2098570395
1.1889141231
1.2177056940
1.2566397838
1.2202873762
1.1898409172
1.2523406342
1.1934598519
1.2638233273
1.2149414014
1.2446772850
1.2255365456
1.2303488835
1.2384610791
1.1944934908
1.2283610997
1.1966687524
1.2612641158
1.2114346856
1.2421208014
1.1939395039
1.2573294206
1.2409300516
1.2582202835
1.2342284175
1.2310207649
1.2133139461
1.2546568352
1.2080756027
1.1882401646
1.2233524503
1.2554208399
1.2144179694
1.1890861412
1.2490670250
1.1901047224
1.2625356539
1.2482498698
1.2256084337
1.2345891942
1.1920008117
1.2328592639
1.2137042453
1.2368065428
1.2443361415
1.2542041731
1.2084549824
1.2167777310
1.2175909278
1.2222237192
1.2327872265
1.2544164122
1.2297795796
1.2512012470
1.2544238911
1.2045258860
1.2233509563
1.2416359207
1.2229314801
1.2053512024
1.2247771244
1.2010988333
1.2138804448
1.2411748179
1.2486524962
1.2540396376
1.2366690251
1.2408809810
1.2416365808
1.2337907400
1.2589274851
1.2504492563
1.2109291088
1.2424741956
1.2120075537
1.2042533648
1.2034802294
1.2481818705
1.2469753549
1.2247733111
1.2261185214
1.2494169117
1.2349824997
1.2490098126
1.2431288513
1.2446764604
1.2102434973
1.2266350376
1.2337724579
1.2523165623
1.2164260207
1.2400887562
1.2478882031
1.2402200463
1.2568130280
1.2047266058
1.2111263705
1.2148622747
1.2260815872
1.2371925828
1.2549942041
1.2313371939
1.2523561299
1.2088256390
1.2281019297
1.2430262188
1.2279789172
1.1998804133
1.1998804462
1.2181582955
1.2421953238
1.2497768778
1.2517538451
1.2405943087
1.2396205153
1.2322658443
1.2604351438
1.2530257788
1.2172398628
1.2240835260
1.2388237911
1.2149237707
1.2010990335
1.2500015130
1.2461180763
1.2267104012
1.2241761199
1.2513596097
1.2309419758
1.2458926519
1.2439757450
1.2477364205
1.2104001768
1.2219488000
1.2353231360
1.2269142749
1.2622872991
1.2318175750
1.2410006784
1.2546506074
1.2188341955
1.2257021655
1.2432507656
1.2080763657
1.2169987984
1.2325048696
1.2266249044
1.1912057551
1.2419745913
1.2404641328
1.2270894794
1.2364733770
1.2588783614
1.1994824215
1.2162952433
1.2373444387
1.2502695605
1.2185616900
1.2229581859
1.2354034611
1.1957576465
1.2154561185
1.1903943471
1.1903944868
1.2074233738
1.2154004542
1.2355549066
1.2450652653
1.1931642918
1.1892567905
1.2470034176
1.2327999704
1.2071746954
1.2134542248
1.2230747547
1.2147754790
1.2039412652
1.2241594953
1.2260830271
1.2319310350
1.2608867199
1.2346570889
1.2401608241
1.2534681518
1.2243476604
1.2394980688
1.2133148696
1.2134688337
1.2213379677
1.1892570296
1.2437601829
1.2439347413
1.2310220463
1.2376223091
1.2563688164
1.2021983766
1.2216043751
1.2398036853
1.2468473196
1.2230758575
1.2259400874
1.2341636083
1.1978820215
1.2131870480
1.1882404494
1.2011743007
1.2114039835
1.2089559970
1.2313159088
1.2452017515
1.1944939455
1.2499462918
1.2342297939
1.2188942121
1.2048140339
1.2168975805
1.2288133186
1.2185606760
1.2048277012
1.2242784415
1.1914349714
1.2404630614
1.2162979702
1.2045257869
1.2470045300
1.2297752321
1.2035543483
1.2048147315
1.1927499600
1.2100351966
1.2050193274
1.2406955488
1.1982451956
1.2488764318
1.2047005661
1.2197063126
1.2211366180
1.2048289774
1.1886964027
1.2197049387
1.2294698016
1.2138798094
1.2042180690
1.2486562536
1.2568707115
1.2044788059
1.2074029794
1.2488686154
1.1945893589
1.2161546556
1.2368003309
1.2452664490
1.2003295689
1.2179979995
1.2137053043
1.2355581616
1.2222216025
1.2284569764
1.1996015025
1.1970135859
1.2470067853
1.2006258183
1.2085180430
1.2566281264
1.2411568945
1.2085759546
1.2360257822
1.2463780838
1.1966017625
1.2132105823
1.2360199443
1.2430015002
1.2269155491
1.1923100110
1.2283307760
1.2274962097
1.2364726266
1.2437470966
1.1909007906
1.2439343276
1.2216065703
1.2002609426
1.2499493050
1.2260783818
1.1996015087
1.2205330219
1.2039418451
1.1903468587
1.2128972948
1.2026377407
1.2444102414
1.1942711461
1.2102096087
1.2186069256
1.2074254967
1.1915523046
1.2141197197
1.2219939901
1.2093626804
1.2061369662
1.2542306701
1.2347548144
1.2494084400
1.1987008819
1.2220367899
1.2333497992
1.1967580613
1.2153139492
1.2367630486
1.2181570583
1.2463863062
1.2002609204
1.2009243921
1.1979658860
1.2091045159
1.2400820787
1.2458421147
1.1973798616
1.2120249587
1.2374136954
1.2431213875
1.2319312166
1.1932234417
1.2300248175
1.2323991841
1.2376216199
1.2478924200
1.2114066986