<VTKFile type="UnstructuredGrid" version="0.1">
	<UnstructuredGrid>
		<Piece NumberOfPoints="1862" NumberOfCells="3498">
			<CellData>
				<DataArray type="Int32" Name="type" NumberOfComponents="1" Format="ascii">
0
0
0
0
0
0
0
0
0
0
0
0
0
0
0
0
1
0
0
1
0
0
0
0
0
0
0
0
0
0
0
0
0
1
0
0
0
0
0
0
0
0
0
0
0
0
0
0
0
0
1
0
0
0
0
0
0
0
0
0
0
1
0
0
0
0
0
0
0
0
0
0
0
0
0
0
0
0
0
0
0
0
0
0
0
0
0
0
0
0
0
0
0
0
0
0
0
0
0
0
0
0
0
0
0
0
0
0
0
0
0
0
0
0
0
0
0
0
0
0
0
0
0
1
0
0
0
0
0
0
0
0
0
0
0
0
0
0
0
0
0
0
0
0
0
0
0
0
0
0
0
1
0
1
1
0
0
0
0
0
0
0
0
0
0
0
0
0
1
0
1
0
0
0
0
1
0
0
0
0
0
0
0
0
1
1
0
0
0
0
0
1
0
0
0
0
0
0
0
0
1
0
0
0
0
0
0
0
0
0
0
0
0
0
0
0
0
0
0
0
0
0
0
0
0
0
0
0
0
0
0
0
0
1
0
0
0
0
0
0
0
0
0
0
0
0
0
0
0
0
0
0
0
0
0
0
0
0
0
0
0
0
0
0
0
0
0
0
0
0
0
0
0
0
0
0
0
0
0
0
0
1
0
0
0
0
0
0
0
0
0
0
0
0
0
0
0
0
0
0
0
0
0
0
0
0
0
0
0
0
0
0
0
0
0
0
0
0
0
0
0
0
0
0
0
0
0
0
0
0
0
0
1
0
0
0
0
0
0
0
0
0
0
0
0
0
0
0
0
0
0
0
0
0
0
0
0
0
0
0
0
0
0
0
0
0
0
0
0
0
0
0
0
0
0
0
0
0
0
0
0
0
0
0
0
0
0
0
0
0
1
0
0
0
0
0
0
0
0
0
0
0
0
0
0
0
0
0
0
0
0
0
0
0
0
0
0
0
0
0
0
0
0
0
0
0
0
0
0
0
0
0
0
0
0
0
0
0
0
0
0
0
0
0
0
0
0
0
0
0
0
0
0
0
0
0
0
0
0
0
0
0
0
0
0
0
0
0
0
0
0
0
0
0
0
0
0
0
0
0
0
0
0
0
0
0
0
0
0
0
0
0
0
0
0
0
0
0
0
0
0
0
0
0
0
0
0
0
0
0
0
0
0
0
0
0
0
0
0
0
0
0
0
1
0
0
0
0
0
0
0
0
0
0
0
0
0
0
0
0
0
0
0
1
0
0
0
0
0
0
0
0
0
0
0
0
0
0
0
0
0
0
0
0
0
0
0
0
0
0
0
0
0
0
0
0
0
0
0
0
0
0
0
0
0
0
0
0
0
0
0
0
0
0
0
0
0
1
0
0
0
0
0
0
0
0
0
0
0
0
0
0
0
0
0
0
0
0
0
0
0
1
0
0
0
0
0
0
0
0
0
0
0
0
0
0
0
0
0
0
0
1
0
0
0
1
0
0
0
0
0
0
0
0
0
0
0
0
0
0
0
0
0
0
0
0
0
0
0
0
0
1
0
0
0
0
0
0
0
1
0
0
0
0
0
0
0
0
0
0
0
0
0
0
0
0
0
0
0
0
0
0
0
0
0
0
1
0
0
0
0
0
0
0
1
0
0
0
0
0
0
1
0
0
0
0
0
0
0
0
0
0
0
0
0
0
0
0
0
0
0
0
0
0
0
0
0
0
0
0
0
0
0
0
0
0
0
0
0
0
1
0
0
0
0
0
1
0
0
0
0
0
0
0
1
0
0
0
0
0
0
0
0
0
0
0
0
0
1
0
0
0
0
0
0
0
0
0
0
0
0
0
0
0
0
0
0
0
0
0
0
0
0
0
0
0
0
0
0
0
0
0
0
0
0
0
0
0
0
0
0
0
0
0
0
0
0
0
0
0
0
0
1
0
0
0
0
0
0
0
0
0
0
0
0
0
0
0
0
0
0
0
1
0
0
0
0
0
0
0
0
0
1
0
0
0
0
0
0
0
0
0
0
0
0
0
0
0
0
0
0
0
0
0
0
0
0
0
0
0
0
0
1
0
1
0
0
0
0
0
0
0
0
0
0
0
0
0
0
0
0
0
0
0
0
0
0
0
0
0
0
0
1
0
0
0
1
0
0
0
0
0
0
0
0
0
0
0
0
0
0
0
0
0
0
0
0
0
0
0
0
0
0
0
0
1
0
0
0
0
0
0
0
0
0
0
0
0
0
0
0
0
0
0
0
0
0
0
0
0
0
1
0
0
0
0
0
0
0
0
0
0
0
0
0
0
0
0
0
0
0
0
0
0
0
1
0
0
0
0
0
0
1
0
0
0
0
0
0
0
0
0
0
0
1
0
0
0
0
0
0
0
0
0
0
0
0
0
0
0
0
0
0
0
0
1
0
0
0
0
0
0
0
0
0
0
0
1
0
0
0
0
0
0
0
0
0
0
0
0
0
0
0
0
0
0
0
0
0
1
0
0
0
0
0
0
0
0
0
1
1
0
1
0
1
0
0
0
0
0
0
0
0
0
0
0
1
0
0
0
0
0
1
1
0
0
0
0
0
0
1
0
0
0
0
0
1
1
1
0
0
0
0
0
0
0
0
0
0
0
0
1
1
0
0
1
0
0
0
0
0
1
0
0
0
1
0
1
0
0
0
0
0
0
0
1
0
0
0
0
0
0
0
1
0
0
1
0
0
0
0
0
0
0
0
0
0
0
0
0
0
0
1
0
0
0
0
0
0
0
0
0
0
0
0
0
0
0
0
0
0
0
0
0
0
0
0
0
0
0
0
0
0
0
0
0
0
0
0
1
0
0
0
0
0
0
1
0
0
0
1
0
0
0
0
0
0
0
0
0
0
0
1
0
0
0
0
0
0
0
0
0
0
0
0
0
0
0
0
0
0
0
0
0
0
0
0
0
0
0
0
0
0
0
0
0
0
0
0
0
0
0
0
1
1
0
0
0
0
0
0
0
0
0
0
0
0
0
1
0
0
0
0
0
0
0
0
0
0
0
0
0
0
0
0
0
0
0
0
0
0
0
0
0
0
0
0
0
0
0
0
0
0
0
0
0
0
0
0
0
0
0
0
0
0
0
0
0
0
0
0
0
0
0
0
0
0
0
0
0
0
0
0
0
0
0
0
0
0
0
0
1
1
0
0
0
0
0
0
0
0
1
0
0
0
0
0
0
0
0
0
0
0
0
0
0
0
0
0
0
0
0
0
0
0
1
0
0
0
0
0
0
0
0
0
0
0
0
0
0
0
0
1
0
0
0
0
0
0
0
0
0
0
0
0
0
0
0
0
0
0
0
0
0
0
0
0
0
0
0
0
0
0
0
0
0
0
0
0
0
0
0
0
0
0
0
0
0
0
0
0
0
0
0
0
0
0
0
0
0
0
0
0
0
0
0
0
0
0
0
0
0
0
0
0
0
0
0
0
0
0
0
0
0
0
0
0
0
0
0
0
0
0
1
1
0
0
0
0
0
1
0
0
0
0
0
0
0
0
0
0
0
0
1
0
0
0
0
0
0
0
0
0
0
0
0
0
0
0
0
0
0
0
0
0
0
0
0
0
0
0
0
0
0
0
0
0
0
0
0
0
0
0
0
0
0
0
0
0
0
0
0
0
0
0
0
0
1
0
1
0
0
0
0
0
0
0
0
0
0
0
0
0
0
0
0
0
0
1
0
0
0
0
0
0
0
0
0
0
0
0
0
0
0
0
0
0
0
0
0
0
0
0
0
0
0
0
0
0
0
0
0
0
0
0
0
0
0
0
0
0
0
0
0
0
0
0
0
0
0
0
0
0
0
0
0
0
0
0
0
0
0
0
0
0
0
0
0
0
1
0
0
0
0
0
0
0
0
0
0
1
0
0
0
0
0
0
0
0
0
0
0
0
0
0
0
0
0
0
0
0
0
0
0
0
0
0
0
0
0
0
0
0
0
0
0
0
0
1
0
0
0
0
0
0
0
0
0
0
0
0
0
0
0
0
0
0
0
0
0
0
0
0
0
0
0
0
0
0
0
0
0
0
0
0
0
0
0
0
0
0
0
0
0
0
0
0
0
0
0
0
0
0
0
0
0
0
0
0
0
0
0
0
0
0
0
0
0
0
0
0
0
0
0
0
0
0
0
0
0
1
0
0
0
0
0
0
0
0
0
0
0
0
0
0
0
0
0
0
0
0
0
0
0
0
0
0
0
0
0
0
0
0
0
0
0
0
0
0
0
0
0
0
0
0
0
0
0
0
0
0
0
0
0
0
0
0
0
0
0
0
0
0
0
0
0
0
0
0
0
0
0
0
0
0
0
0
0
0
0
0
0
0
0
0
0
0
0
0
0
0
0
0
0
0
0
0
0
0
0
0
0
0
0
0
0
0
0
0
0
0
0
0
0
0
0
0
0
0
0
0
0
0
0
1
0
0
0
0
0
0
0
0
0
0
0
0
0
0
0
0
0
0
0
0
0
0
0
0
0
0
0
0
0
0
0
0
0
0
0
0
0
0
0
0
0
0
0
0
0
0
0
0
0
0
0
0
0
0
0
0
0
0
0
0
0
0
0
0
0
0
0
0
0
0
0
0
0
0
0
0
0
0
0
0
0
1
0
0
0
0
0
0
0
1
0
0
0
0
0
0
0
0
0
0
0
0
0
0
0
0
0
0
0
0
0
0
0
0
0
0
0
0
0
0
0
0
0
0
0
0
0
1
0
0
0
0
0
0
0
0
0
0
0
0
0
0
0
0
0
0
0
0
0
1
0
0
0
0
0
0
0
0
0
0
0
0
1
1
0
0
0
0
0
0
0
0
0
0
0
0
0
0
0
1
1
0
1
0
0
0
0
0
0
0
0
0
1
0
0
0
0
0
0
1
0
0
0
0
0
0
0
0
0
0
1
0
0
0
0
1
0
1
0
0
0
0
0
0
0
1
0
0
0
1
0
0
0
1
0
1
1
0
0
1
1
0
0
0
1
0
0
0
1
0
0
0
0
0
0
0
0
0
1
0
0
0
0
0
0
1
0
0
0
0
0
0
0
0
0
0
0
0
0
0
0
0
0
0
0
0
0
0
0
0
0
0
0
1
0
0
1
0
0
0
0
0
0
0
0
0
0
0
0
0
0
0
0
0
0
1
0
0
1
0
0
0
0
0
0
0
0
0
0
0
1
0
0
1
0
0
0
0
0
0
0
0
0
0
0
1
1
0
0
0
0
0
0
0
0
0
0
0
0
1
0
0
0
0
0
0
0
0
0
0
0
0
0
0
0
0
0
1
0
0
0
0
0
0
0
0
0
0
0
0
0
0
0
0
0
1
0
0
0
0
0
0
0
0
0
0
0
0
0
0
0
0
0
0
0
0
0
0
0
0
0
0
0
0
0
0
0
0
0
0
0
0
0
0
0
0
1
0
0
0
0
0
0
0
0
0
0
0
0
0
0
0
0
0
0
0
0
0
0
0
0
0
0
0
0
0
0
0
0
0
0
0
0
0
0
0
0
0
0
0
0
0
1
0
0
0
0
0
0
0
0
0
0
0
0
0
0
0
0
0
0
0
0
0
0
0
0
0
0
0
0
0
0
0
0
0
0
0
0
0
0
0
0
0
0
0
0
0
0
0
1
0
0
0
0
0
0
0
0
0
0
1
0
0
0
0
0
0
0
0
0
0
0
0
0
0
0
1
0
0
1
0
0
0
0
0
0
0
0
0
0
0
0
0
0
0
0
0
0
0
0
0
0
0
1
0
0
0
0
0
0
0
0
0
0
0
0
0
0
0
0
0
0
0
0
0
0
0
0
0
0
0
0
0
0
0
0
0
0
0
1
0
0
0
0
0
0
0
0
0
0
0
0
0
0
0
0
0
0
0
0
0
0
0
0
0
0
0
0
0
0
0
0
0
0
0
0
0
0
0
0
0
0
0
0
0
0
0
0
0
0
0
0
0
0
0
0
0
0
0
0
0
0
0
0
0
0
0
0
0
0
0
0
0
0
0
0
1
0
0
0
0
0
0
0
0
0
0
0
0
0
0
0
0
0
0
0
0
0
0
0
0
0
0
0
0
0
0
0
0
0
0
0
0
0
0
0
1
0
0
0
0
0
0
0
0
0
0
0
0
1
1
0
0
0
0
0
0
0
0
0
0
0
0
0
0
0
0
0
0
0
0
0
0
0
0
0
0
0
0
0
0
0
0
0
0
0
0
0
0
0
0
0
0
0
0
0
0
0
0
0
0
0
0
0
0
0
0
0
0
0
0
0
0
0
0
0
0
0
0
0
0
0
0
0
0
0
0
0
0
0
0
0
0
0
0
0
0
0
0
0
0
0
0
0
0
0
0
0
0
0
0
0
1
0
1
0
0
0
0
0
0
0
1
1
1
1
0
0
0
0
0
0
0
0
0
0
0
0
0
0
0
0
0
0
0
0
0
0
0
0
0
0
0
0
1
1
0
0
0
0
0
0
0
0
0
0
0
0
0
0
0
0
0
0
1
0
0
0
0
0
0
0
1
1
0
1
1
0
0
1
0
0
0
0
0
0
0
1
0
1
0
0
0
0
0
0
0
0
0
0
0
0
0
0
0
0
0
0
0
0
0
0
0
0
0
0
0
1
1
0
0
0
1
1
0
0
0
0
1
0
0
1
0
1
0
0
0
0
0
1
0
0
0
1
0
0
0
0
0
0
0
0
0
0
0
0
0
0
0
0
0
0
0
0
0
0
0
0
0
0
0
1
0
0
0
0
0
0
1
0
0
0
0
0
0
0
0
0
0
0
0
0
0
0
0
0
0
0
0
0
0
0
0
0
0
0
0
0
1
0
1
0
0
0
0
0
0
0
1
0
0
0
0
0
0
0
0
0
0
0
1
0
0
0
0
0
0
0
0
0
1
0
0
0
0
0
0
0
1
0
0
0
0
0
0
0
1
0
0
0
0
0
0
0
0
0
0
0
0
0
0
0
0
0
0
0
1
0
1
0
0
0
0
0
1
0
0
0
0
0
0
0
0
0
0
0
0
0
0
0
0
0
0
0
0
0
0
0
0
0
1
0
1
0
0
0
0
0
0
0
0
0
1
0
0
0
0
0
1
0
0
0
0
0
0
0
0
0
0
0
0
0
0
0
1
0
0
0
0
0
0
0
0
1
0
0
0
0
0
0
0
0
0
0
0
0
0
0
0
0
0
0
0
0
0
0
0
0
0
0
0
0
0
0
1
0
0
0
0
0
0
0
0
0
0
0
0
0
0
0
0
1
0
0
0
0
0
0
0
0
1
0
0
0
0
0
0
0
0
0
1
0
0
0
0
0
1
0
0
0
0
0
0
0
0
0
0
0
0
0
0
0
0
0
0
0
1
0
0
0
0
0
0
1
0
0
0
0
0
0
0
0
1
0
0
0
0
0
0
0
0
0
0
0
0
0
0
1
0
0
1
0
0
0
1
0
0
0
0
0
0
0
0
0
0
0
0
0
0
0
0
1
0
0
0
0
0
0
0
0
0
0
1
0
1
0
0
0
0
0
0
1
0
0
0
0
0
0
0
0
0
0
0
0
0
0
0
0
0
0
0
0
0
0
0
0
0
0
0
1
1
0
0
0
0
0
0
1
0
0
0
0
0
0
0
0
0
0
0
0
0
1
0
0
0
0
0
0
0
1
0
0
0
0
0
0
0
0
0
0
0
0
0
0
0
0
0
0
0
0
0
0
0
0
0
0
0
1
0
0
0
0
0
0
0
0
0
0
1
0
0
1
0
0
0
0
0
0
0
0
0
0
0
0
0
0
0
0
0
0
0
0
0
0
0
0
0
0
0
0
0
1
0
0
0
0
0
0
0
1
0
0
0
0
0
0
0
1
0
0
0
0
1
0
0
0
0
0
0
0
0
0
0
0
1
0
1
0
0
0
1
0
				</DataArray>
				<DataArray type="Float64" Name="h" NumberOfComponents="1" Format="ascii">
1.1588844410
1.1588814236
1.1601686580
1.1588710608
1.1603352417
1.1600931145
1.1594743460
1.1583195885
1.1593067381
1.1574756971
1.1585251728
1.1597272058
1.1582267931
1.1580553356
1.1584587709
1.1575122832
1.1592207417
1.1575856047
1.1588180420
1.1583353533
1.1607434503
1.1584414746
1.1596555751
1.1610937863
1.1587760433
1.1573173645
1.1590970407
1.1626032431
1.1604793646
1.1577221838
1.1579681592
1.1597909500
1.1582991707
1.1602111591
1.1631201690
1.1613815128
1.1619076282
1.1598483691
1.1623886538
1.1611364278
1.1605746088
1.1629282186
1.1592677692
1.1607170274
1.1614584678
1.1619685073
1.1600196334
1.1638930456
1.1714534240
1.1705352650
1.1613313908
1.1616400579
1.1608580100
1.1659757556
1.1626100012
1.1594395854
1.1621132332
1.1652886999
1.1660784004
1.1655383730
1.1673361311
1.1666484146
1.1707709271
1.1617755706
1.1611120246
1.1639859305
1.1695961541
1.1698206933
1.1666832369
1.1659448269
1.1660301772
1.1628224844
1.1599624153
1.1668080548
1.1663917048
1.1630270399
1.1654076553
1.1673976681
1.1645537889
1.1629784159
1.1686928085
1.1647854093
1.1741517155
1.1688294601
1.1619826110
1.1640749562
1.1693504833
1.1678390228
1.1679713959
1.1735189898
1.1699813427
1.1632696758
1.1680340119
1.1727497340
1.1651824464
1.1643100233
1.1668225318
1.1621928281
1.1630946728
1.1694565085
1.1736031719
1.1687040957
1.1662930097
1.1645234016
1.1568047585
1.1688308908
1.1654508591
1.1721921058
1.1674165866
1.1653908436
1.1720121664
1.1728688600
1.1691024624
1.1702827836
1.1672964856
1.1724151327
1.1664670190
1.1571465574
1.1717649752
1.1682959869
1.1568050393
1.1669972028
1.1642369813
1.1564836678
1.1694788091
1.1723135347
1.1674672147
1.1562999272
1.1717308680
1.1726853873
1.1712357460
1.1657505349
1.1684753866
1.1721847388
1.1570586472
1.1712310525
1.1568090457
1.1726908150
1.1700035655
1.1577733794
1.1561731818
1.1567417499
1.1717477814
1.1584787229
1.1645473239
1.1706201442
1.1572081248
1.1741427082
1.1565424150
1.1744445659
1.1565866263
1.1726447604
1.1731183885
1.1742227946
1.1693858106
1.1732847834
1.1734558013
1.1564702409
1.1741776380
1.1557461451
1.1581058847
1.1739509424
1.1569587643
1.1560049407
1.1563561804
1.1736410947
1.1592475087
1.1575027097
1.1561792565
1.1735483048
1.1732784438
1.1558155239
1.1738282676
1.1563318676
1.1595939554
1.1738722806
1.1588073828
1.1749103120
1.1738472097
1.1559603833
1.1733215824
1.1604492014
1.1556781742
1.1647326900
1.1556644714
1.1557350302
1.1600935791
1.1741131038
1.1560507636
1.1555813829
1.1613728403
1.1738918926
1.1555446169
1.1610262810
1.1737686313
1.1746158627
1.1560059142
1.1623929537
1.1620189482
1.1748322886
1.1555489090
1.1656326599
1.1556691699
1.1744105625
1.1635444460
1.1555971380
1.1574240282
1.1564853385
1.1631047635
1.1586705942
1.1611038069
1.1556241664
1.1558708471
1.1555170943
1.1569209677
1.1620769668
1.1580037376
1.1558146023
1.1602188116
1.1555259508
1.1643527607
1.1734194140
1.1594077892
1.1714935711
1.1661975491
1.1753797659
1.1747598002
1.1690447149
1.1648620718
1.1741726447
1.1748832399
1.1725212297
1.1676160971
1.1751618489
1.1753749217
1.1703152726
1.1614524828
1.1576551343
1.1554205854
1.1588716266
1.1611820694
1.1566722317
1.1557441751
1.1589983308
1.1567240919
1.1577272887
1.1557357738
1.1605514047
1.1571354341
1.1559774149
1.1582324147
1.1603351872
1.1560073430
1.1624698923
1.1621409250
1.1556997419
1.1583249167
1.1571926623
1.1555181151
1.1723605091
1.1595703935
1.1663442406
1.1692428576
1.1718761867
1.1671702043
1.1754436768
1.1759234871
1.1644463283
1.1753187897
1.1739684576
1.1753578916
1.1597396188
1.1741043547
1.1699804425
1.1712640533
1.1649747389
1.1677887044
1.1706145776
1.1730047661
1.1657671346
1.1747351660
1.1756724295
1.1754934949
1.1759473343
1.1747572911
1.1733086828
1.1685947371
1.1579246398
1.1559218716
1.1559555391
1.1579753824
1.1615447604
1.1569334095
1.1569587742
1.1590929281
1.1612806955
1.1591998548
1.1574052244
1.1562011637
1.1557005869
1.1559422087
1.1574409817
1.1606702791
1.1622273637
1.1625538186
1.1584869960
1.1604669205
1.1585602825
1.1561994815
1.1664961577
1.1702297211
1.1694776467
1.1758523837
1.1645433553
1.1759790766
1.1727930371
1.1597473555
1.1746846061
1.1765224078
1.1598977387
1.1722696369
1.1673268677
1.1745107821
1.1760402429
1.1679765914
1.1687962568
1.1709256416
1.1760615727
1.1715823904
1.1738313801
1.1753432604
1.1765690461
1.1762351649
1.1651041314
1.1734753545
1.1658879061
1.1753501385
1.1582651712
1.1786409996
1.1593527151
1.1614196725
1.1594273955
1.1561654996
1.1616609804
1.1572608837
1.1582482023
1.1572515821
1.1562249370
1.1785330233
1.1683159297
1.1623593894
1.1746467131
1.1577382269
1.1564560488
1.1794881849
1.1587864979
1.1703455221
1.1606353258
1.1588269655
1.1768021064
1.1770756774
1.1794548008
1.1559428470
1.1608127164
1.1626653623
1.1577368445
1.1654920398
1.1676175982
1.1715623811
1.1562321401
1.1736516474
1.1786534851
1.1564894379
1.1771759455
1.1732231571
1.1726748370
1.1766821066
1.1579605497
1.1766208724
1.1666809477
1.1646754260
1.1752610823
1.1764475185
1.1599597588
1.1750570249
1.1600803312
1.1674980656
1.1705114840
1.1697396860
1.1611279367
1.1768610561
1.1652804065
1.1719319790
1.1641248325
1.1772352816
1.1739545312
1.1584114619
1.1600818861
1.1605436138
1.1623197417
1.1681911672
1.1759636826
1.1617737570
1.1743418182
1.1630926680
1.1766867355
1.1759526678
1.1660288912
1.1690148195
1.1614005755
1.1712544909
1.1668160904
1.1753986977
1.1687209727
1.1586134936
1.1788483468
1.1772525458
1.1596999104
1.1759676323
1.1679763962
1.1658861723
1.1643997352
1.1576110200
1.1779396368
1.1797087423
1.1727129315
1.1780902289
1.1564655817
1.1777338371
1.1618223607
1.1699233109
1.1803079166
1.1751892506
1.1792999380
1.1720138094
1.1731589695
1.1801363492
1.1764453666
1.1780821115
1.1662706774
1.1691570861
1.1747218126
1.1581001452
1.1780695252
1.1684244025
1.1591441581
1.1695641162
1.1712632758
1.1741410108
1.1784143104
1.1757639021
1.1778261177
1.1562325852
1.1664784078
1.1609964553
1.1643997079
1.1813155662
1.1800900432
1.1725056761
1.1811647518
1.1567773761
1.1628294872
1.1590380123
1.1771070295
1.1603045729
1.1736697538
1.1711665515
1.1677076988
1.1630316459
1.1580512025
1.1773636785
1.1600328007
1.1758448184
1.1612373370
1.1648698021
1.1708195653
1.1824235270
1.1616366761
1.1568221448
1.1583140085
1.1588841149
1.1630640598
1.1585433504
1.1773646284
1.1815564765
1.1816888826
1.1765984454
1.1595036011
1.1723067584
1.1610727980
1.1698958004
1.1662187602
1.1832982697
1.1571656918
1.1584118471
1.1608711131
1.1595293594
1.1830431941
1.1748608280
1.1597427194
1.1774021430
1.1797778586
1.1614296946
1.1605440744
1.1623198536
1.1605849060
1.1692650861
1.1565658411
1.1643264930
1.1719202995
1.1595032636
1.1620466612
1.1752294563
1.1600336526
1.1665790556
1.1568225044
1.1763502974
1.1676251654
1.1569452717
1.1600650553
1.1620475052
1.1708068231
1.1695701485
1.1791176550
1.1591267227
1.1791040126
1.1602817719
1.1730034900
1.1651371214
1.1618929715
1.1771918914
1.1590387911
1.1741810354
1.1581575309
1.1580517213
1.1630611210
1.1571660598
1.1595301988
1.1565661589
1.1651370618
1.1630648002
1.1626045305
1.1622795746
1.1567131666
1.1622695586
1.1595966967
1.1590255895
1.1612382147
1.1623563111
1.1621526680
1.1811993887
1.1622758506
1.1586437608
1.1646988381
1.1572790537
1.1658885382
1.1628373159
1.1617359178
1.1793903118
1.1804938940
1.1611552107
1.1608661276
1.1800904214
1.1585440117
1.1637550599
1.1764478644
1.1605857643
1.1711659946
1.1738006337
1.1778286186
1.1605665502
1.1716545991
1.1784455396
1.1734550179
1.1679765928
1.1574096787
1.1651432163
1.1682425963
1.1752293785
1.1615198252
1.1601356814
1.1741418349
1.1774021010
1.1611929080
1.1700756920
1.1587625112
1.1780852382
1.1754004223
1.1695638309
1.1655363171
1.1780936977
1.1632359349
1.1612088073
1.1639167475
1.1650646796
1.1664790185
1.1622379152
1.1571228559
1.1830114136
1.1619229116
1.1639505874
1.1609759230
1.1822133536
1.1597161085
1.1727128293
1.1636909021
1.1629599154
1.1816209723
1.1772552910
1.1646193524
1.1630530071
1.1582646291
1.1805769963
1.1655456546
1.1682425403
1.1592559311
1.1739886848
1.1581579983
1.1605672792
1.1618935798
1.1591274069
1.1809077069
1.1673037452
1.1578009398
1.1569456616
1.1605375922
1.1686018432
1.1827886858
1.1572794342
1.1653156101
1.1629599620
1.1675417834
1.1643989266
1.1628377878
1.1600657993
1.1611559085
1.1586443452
1.1801433628
1.1837127233
1.1777665051
1.1720144595
1.1567135045
1.1632253642
1.1630607938
1.1619150002
1.1828376870
1.1792840462
1.1646988209
1.1633129097
1.1823887715
1.1719441685
1.1605381012
1.1577325118
1.1592613906
1.1744290514
1.1613345474
1.1627032106
1.1595974335
1.1784772568
1.1601754013
1.1573718506
1.1587241900
1.1759279476
1.1815912159
1.1843457839
1.1766360717
1.1695571147
1.1608999455
1.1581963320
1.1597547021
1.1841909744
1.1846988378
1.1630611648
1.1637008395
1.1629009053
1.1663999352
1.1803354186
1.1676009233
1.1662150583
1.1861585802
1.1849702747
1.1621761756
1.1626769219
1.1815046560
1.1634248235
1.1641509365
1.1697653327
1.1833675939
1.1855777269
1.1844873851
1.1637587301
1.1639974341
1.1704027418
1.1677603236
1.1668361123
1.1829284582
1.1842964916
1.1794470557
1.1813036096
1.1744813921
1.1854006748
1.1863111322
1.1683770710
1.1837126546
1.1821571597
1.1646193133
1.1868661317
1.1622761020
1.1849175900
1.1622504603
1.1627539509
1.1868726829
1.1655456372
1.1860205938
1.1855022067
1.1608663531
1.1846724621
1.1610281943
1.1603371085
1.1838071998
1.1842621645
1.1587495632
1.1593789679
1.1594878500
1.1594851047
1.1593747514
1.1593262040
1.1597266692
1.1585250835
1.1586673941
1.1602689148
1.1600940490
1.1603338613
1.1602663813
1.1593050384
1.1584599918
1.1594753996
1.1578197323
1.1586668851
1.1593259222
1.1581286289
1.1575851935
1.1588713653
1.1601685306
1.1588223333
1.1577213744
1.1576541329
1.1597031668
1.1583187853
1.1573163651
1.1587750442
1.1574763550
1.1581819405
1.1582252280
1.1606796283
1.1579037702
1.1590675910
1.1578201548
1.1579667811
1.1581277662
1.1602094546
1.1583009198
1.1597971178
1.1586284985
1.1611363226
1.1619843701
1.1592224818
1.1575127521
1.1592743832
1.1623979690
1.1597042969
1.1576542578
1.1605782515
1.1580561563
1.1583369082
1.1606801638
1.1596479399
1.1640190328
1.1584384927
1.1618274743
1.1581798902
1.1607446647
1.1590624557
1.1589559094
1.1633579827
1.1638919753
1.1579037554
1.1614593465
1.1613297730
1.1600284364
1.1625939344
1.1610933258
1.1604737512
1.1621189844
1.1613677006
1.1590924950
1.1624038268
1.1574177362
1.1619736891
1.1631426319
1.1631712400
1.1586261507
1.1608649405
1.1640201644
1.1713193232
1.1699746661
1.1589499784
1.1618283090
1.1623910073
1.1633529033
1.1613797557
1.1611224916
1.1598389980
1.1636666476
1.1631212541
1.1707665067
1.1698138755
1.1635331920
1.1619090199
1.1617781152
1.1631421339
1.1649084589
1.1652268655
1.1607075611
1.1668047534
1.1653670294
1.1628224934
1.1599693431
1.1659499154
1.1609461166
1.1608860545
1.1624044313
1.1673545027
1.1631726513
1.1629270268
1.1654064131
1.1660288925
1.1669528589
1.1663889676
1.1613567984
1.1602166388
1.1666824948
1.1625480602
1.1574184097
1.1659440987
1.1623912230
1.1636674600
1.1637891238
1.1635300255
1.1689965061
1.1642142888
1.1703985309
1.1714579841
1.1616362146
1.1699803664
1.1619603243
1.1647877157
1.1688233258
1.1643439082
1.1713259839
1.1705424080
1.1673362967
1.1666486396
1.1602069228
1.1680392036
1.1669560180
1.1660803159
1.1650493821
1.1653688850
1.1623110482
1.1603547306
1.1649099127
1.1625495843
1.1639625775
1.1626093665
1.1667030968
1.1659506547
1.1673546198
1.1594344705
1.1649666258
1.1664659389
1.1609383201
1.1659766432
1.1652285594
1.1655403532
1.1632767006
1.1652897682
1.1608752233
1.1680335087
1.1690014462
1.1645222763
1.1631025853
1.1643438556
1.1613109157
1.1642152023
1.1687047642
1.1695220061
1.1688504864
1.1680267365
1.1639810430
1.1736027381
1.1696031395
1.1638641498
1.1622032083
1.1680444879
1.1643157071
1.1645409760
1.1704074720
1.1694571157
1.1688256991
1.1637830711
1.1741911638
1.1649652573
1.1674147080
1.1728635287
1.1680393589
1.1664682247
1.1691010225
1.1639631728
1.1630221650
1.1718658734
1.1650511821
1.1673988230
1.1603477136
1.1699992510
1.1623057362
1.1720026285
1.1653943483
1.1667040825
1.1688510702
1.1741885833
1.1658031372
1.1680440254
1.1640695420
1.1669967382
1.1678185829
1.1638654400
1.1570670213
1.1645416839
1.1680300218
1.1619754676
1.1629702158
1.1693496563
1.1741500229
1.1686921501
1.1664668931
1.1645548803
1.1695303892
1.1568036420
1.1678425976
1.1613038872
1.1699985549
1.1657534345
1.1710627529
1.1567803799
1.1723122111
1.1687863484
1.1703932531
1.1679735960
1.1651789450
1.1727578778
1.1724247076
1.1735221619
1.1699813754
1.1716675487
1.1652427447
1.1694749164
1.1674637255
1.1718777744
1.1726880149
1.1662929979
1.1730681156
1.1709059475
1.1658035992
1.1570683067
1.1678216764
1.1708972267
1.1570573455
1.1712319853
1.1684710966
1.1568062459
1.1668234947
1.1645511305
1.1700722383
1.1567402482
1.1692891597
1.1567819377
1.1724228054
1.1702848256
1.1721950250
1.1569730274
1.1652435744
1.1703940667
1.1672995334
1.1565409043
1.1710742668
1.1717502521
1.1563389124
1.1724121146
1.1687883876
1.1706218304
1.1716684220
1.1654486328
1.1567543328
1.1634311838
1.1699115305
1.1729616881
1.1730667816
1.1709006349
1.1563785711
1.1722425952
1.1729579667
1.1699957183
1.1683007728
1.1709190113
1.1726483262
1.1571476534
1.1706082587
1.1717646789
1.1573394500
1.1565845189
1.1731222833
1.1693870810
1.1569751856
1.1563403265
1.1575016533
1.1563545858
1.1692937751
1.1739616894
1.1567557873
1.1561614223
1.1744874674
1.1688624349
1.1700830157
1.1564851215
1.1717281209
1.1581060715
1.1565705770
1.1642341578
1.1712340462
1.1572835706
1.1569568705
1.1711806157
1.1739552264
1.1563014123
1.1741817198
1.1699941240
1.1568114084
1.1721814154
1.1734378514
1.1683760852
1.1729572812
1.1728457314
1.1726871253
1.1738325167
1.1575805567
1.1565308131
1.1700019631
1.1573406787
1.1699223555
1.1563805341
1.1729577001
1.1634284317
1.1706063778
1.1735523542
1.1711833099
1.1722393252
1.1732824942
1.1563302596
1.1744405644
1.1556769309
1.1674635037
1.1565721287
1.1561629156
1.1736265041
1.1738229316
1.1740657070
1.1584769717
1.1741385228
1.1572093789
1.1559589130
1.1744834509
1.1572851119
1.1688676890
1.1557811461
1.1561747537
1.1733252869
1.1711781741
1.1588094590
1.1706319179
1.1577735911
1.1739574649
1.1558741506
1.1560494653
1.1732807139
1.1734515794
1.1565325290
1.1669984709
1.1734337863
1.1569601476
1.1575822231
1.1683808970
1.1556633430
1.1728418523
1.1742190204
1.1564717968
1.1711808260
1.1600983898
1.1660233709
1.1737726893
1.1592438024
1.1558755597
1.1736236844
1.1746197429
1.1557824763
1.1740615797
1.1706298462
1.1740859400
1.1557230120
1.1738186496
1.1674649194
1.1559505294
1.1738956134
1.1717415800
1.1560064555
1.1736376488
1.1610309530
1.1748625483
1.1557474371
1.1656339626
1.1742176513
1.1558167595
1.1556680431
1.1595903080
1.1744146141
1.1669994047
1.1561805631
1.1555477871
1.1569617521
1.1620224383
1.1743382779
1.1738433405
1.1561225602
1.1557242128
1.1559519497
1.1556229640
1.1748585648
1.1740818650
1.1557158340
1.1746183746
1.1604451427
1.1717387075
1.1738684792
1.1660222620
1.1554370960
1.1554753643
1.1749062331
1.1558694738
1.1631068845
1.1613697174
1.1748872696
1.1742135597
1.1555825343
1.1743339091
1.1745470228
1.1746779060
1.1647311545
1.1557361279
1.1741090319
1.1643544170
1.1557346648
1.1577263203
1.1562051470
1.1567225509
1.1623912321
1.1554764914
1.1631785301
1.1555686731
1.1589993506
1.1561159737
1.1561241244
1.1614531038
1.1555457819
1.1554157194
1.1746149059
1.1560074578
1.1554514418
1.1571911960
1.1563363359
1.1624699313
1.1583248407
1.1560060731
1.1605528310
1.1554382639
1.1554194526
1.1557170962
1.1749927985
1.1636347689
1.1635434601
1.1745429226
1.1732962461
1.1597412769
1.1746733871
1.1712511220
1.1657688938
1.1754977354
1.1747322308
1.1751648367
1.1685918999
1.1644468985
1.1740963545
1.1748274952
1.1723459885
1.1671709514
1.1753243526
1.1751869552
1.1754467343
1.1699722853
1.1611019197
1.1579745325
1.1562870520
1.1555271097
1.1592000489
1.1615441621
1.1561174120
1.1631781362
1.1562068242
1.1556128690
1.1632507498
1.1569576592
1.1559209549
1.1555699069
1.1586696517
1.1564870071
1.1574251872
1.1555982229
1.1602164116
1.1574398656
1.1561984824
1.1554168344
1.1585599511
1.1606702144
1.1558158139
1.1620759750
1.1625527636
1.1565417217
1.1555825036
1.1580040854
1.1563377969
1.1569226282
1.1554524900
1.1725347221
1.1598980521
1.1637307120
1.1658894331
1.1687965227
1.1715729141
1.1676165497
1.1751860322
1.1753708680
1.1760640538
1.1648615836
1.1751571994
1.1757574470
1.1738182624
1.1753366162
1.1594057532
1.1749885374
1.1741778452
1.1703242967
1.1715068822
1.1645427924
1.1673291388
1.1702254080
1.1727801804
1.1661965900
1.1747601626
1.1751622417
1.1758575175
1.1636354998
1.1753752807
1.1760405582
1.1746740130
1.1757953465
1.1734296830
1.1690484591
1.1582644098
1.1565272775
1.1557451313
1.1556140831
1.1561648194
1.1576561497
1.1611819348
1.1633481086
1.1572507983
1.1632517559
1.1566734866
1.1594270167
1.1616597266
1.1588712635
1.1562882178
1.1577373808
1.1564553558
1.1555834199
1.1557866851
1.1571366951
1.1603344230
1.1626637277
1.1568190992
1.1621413215
1.1565427771
1.1588264205
1.1608119129
1.1582328521
1.1559784655
1.1660291771
1.1706207275
1.1690167562
1.1756677508
1.1649748887
1.1759561329
1.1730187606
1.1600798654
1.1747663815
1.1757980555
1.1763874064
1.1766863521
1.1638622576
1.1595695083
1.1719272696
1.1677876525
1.1743318742
1.1759450593
1.1675000421
1.1692443606
1.1705108527
1.1759198014
1.1637323830
1.1764344837
1.1718875119
1.1739813616
1.1753622107
1.1766795104
1.1764504917
1.1646739138
1.1732148700
1.1663430118
1.1752515885
1.1757577497
1.1788459321
1.1699234029
1.1634987871
1.1759673071
1.1579254806
1.1565281331
1.1788715706
1.1792317402
1.1596991766
1.1691641982
1.1618209916
1.1590929973
1.1755119944
1.1779382364
1.1794533533
1.1559563349
1.1612816007
1.1633502734
1.1576104286
1.1586127373
1.1569343163
1.1668159909
1.1662282406
1.1731593933
1.1564651057
1.1724506409
1.1778714524
1.1568384487
1.1784714417
1.1687758558
1.1628279941
1.1749662068
1.1574061823
1.1562019993
1.1786067859
1.1796535921
1.1591434204
1.1708001226
1.1609953804
1.1584874816
1.1765665340
1.1772093541
1.1791154110
1.1557874301
1.1604672419
1.1622287990
1.1571631610
1.1580994383
1.1568198085
1.1658481034
1.1672132789
1.1720064990
1.1560470477
1.1740432128
1.1786880405
1.1567769054
1.1610735003
1.1773618662
1.1640557723
1.1734862287
1.1634628497
1.1770501289
1.1723055850
1.1765697024
1.1583136580
1.1586151085
1.1599979708
1.1765927824
1.1610724701
1.1622126810
1.1662180731
1.1764395087
1.1651048308
1.1619362422
1.1753600859
1.1635749061
1.1762312508
1.1603037356
1.1748555234
1.1597473168
1.1679748335
1.1709285518
1.1617221112
1.1692664995
1.1614292891
1.1771069098
1.1648682438
1.1722770523
1.1639506082
1.1773598051
1.1736661681
1.1763908084
1.1578581297
1.1581347008
1.1603976093
1.1771023658
1.1608821901
1.1623678463
1.1677082193
1.1759858471
1.1638643090
1.1619226574
1.1745224804
1.1630315883
1.1765209764
1.1758389182
1.1664952324
1.1694770908
1.1616363320
1.1708204102
1.1672380577
1.1792471522
1.1756175395
1.1777449747
1.1676253130
1.1691642586
1.1708069059
1.1734394964
1.1582489378
1.1786975333
1.1766758278
1.1772849229
1.1786950352
1.1669741786
1.1593531701
1.1761992796
1.1684523607
1.1662282444
1.1703905892
1.1646683486
1.1700264618
1.1572615482
1.1779752431
1.1794551891
1.1730990131
1.1793901327
1.1761980887
1.1771920918
1.1778828823
1.1562255657
1.1655263900
1.1778719029
1.1614210532
1.1654921062
1.1658863246
1.1811986047
1.1804930690
1.1703901099
1.1741811704
1.1805860760
1.1755120120
1.1792326893
1.1808181226
1.1568390579
1.1635010751
1.1724504154
1.1735522310
1.1797068902
1.1683163355
1.1801722281
1.1765708753
1.1777338017
1.1779443010
1.1666235984
1.1676175373
1.1695954037
1.1751131836
1.1577375946
1.1788739277
1.1778283517
1.1778013936
1.1679901938
1.1587870858
1.1770764508
1.1700394066
1.1650516844
1.1650517530
1.1717207134
1.1571636553
1.1785345804
1.1794903596
1.1744491413
1.1785539493
1.1760862703
1.1775509876
1.1560476165
1.1669237573
1.1720139518
1.1768025824
1.1606362289
1.1646684661
1.1809066465
1.1800168973
1.1715623110
1.1729364339
1.1803595301
1.1740429157
1.1786892390
1.1813535332
1.1564900619
1.1623612284
1.1707998049
1.1746466826
1.1586427712
1.1768589950
1.1805770408
1.1822130737
1.1771072169
1.1599603065
1.1588844842
1.1739609746
1.1608825842
1.1716546926
1.1716106525
1.1681898830
1.1630926736
1.1830111166
1.1572230765
1.1586154309
1.1576636942
1.1772383649
1.1615934189
1.1596714095
1.1823886635
1.1759603320
1.1598105836
1.1761031983
1.1808693007
1.1610739787
1.1600822915
1.1626318716
1.1626319677
1.1608603734
1.1652814638
1.1712550987
1.1821072126
1.1614009597
1.1627193559
1.1565533015
1.1579608905
1.1651428175
1.1706525136
1.1591934269
1.1604833279
1.1625591902
1.1590093384
1.1769126723
1.1581438397
1.1771772966
1.1816209506
1.1816170008
1.1766272294
1.1589625532
1.1726784673
1.1603979643
1.1703987921
1.1666807676
1.1627194314
1.1828373762
1.1568463989
1.1581350639
1.1575829863
1.1770548483
1.1612083994
1.1591504027
1.1828582773
1.1750648614
1.1591937514
1.1777777028
1.1799315735
1.1611284082
1.1599984401
1.1623679968
1.1607586268
1.1602281668
1.1640574995
1.1697384570
1.1823037758
1.1617224405
1.1563559737
1.1578584966
1.1595009955
1.1637245637
1.1724766159
1.1584315242
1.1598102968
1.1616194864
1.1756403123
1.1633799910
1.1572235345
1.1596721151
1.1669740978
1.1565537853
1.1766755949
1.1662705632
1.1637257232
1.1627221181
1.1680305335
1.1631918281
1.1572407537
1.1628618001
1.1803147389
1.1604353371
1.1712543999
1.1593889049
1.1616206297
1.1623779095
1.1712543197
1.1720059943
1.1700263646
1.1618715380
1.1779734860
1.1786100235
1.1665791274
1.1658484511
1.1803156640
1.1620897534
1.1595567245
1.1792470563
1.1772113563
1.1653794033
1.1598642057
1.1672377166
1.1576924804
1.1734393531
1.1736516493
1.1654241866
1.1647829194
1.1792990519
1.1640307858
1.1625213441
1.1786445885
1.1808940855
1.1672131285
1.1774297435
1.1814991247
1.1623440493
1.1608467870
1.1774295675
1.1794248351
1.1586434787
1.1632925126
1.1745690196
1.1585930979
1.1576642228
1.1786538556
1.1630692947
1.1568468644
1.1591511093
1.1657222621
1.1563563976
1.1751129831
1.1654241093
1.1730036114
1.1625603229
1.1627532644
1.1691569861
1.1628682714
1.1569438963
1.1626767272
1.1599956298
1.1594127640
1.1608613364
1.1626391444
1.1687210865
1.1725056456
1.1684242997
1.1627537611
1.1794565106
1.1791041060
1.1805869982
1.1627902658
1.1590889055
1.1780693676
1.1644173713
1.1596654656
1.1576325437
1.1717205988
1.1814985210
1.1657223114
1.1654663432
1.1633749934
1.1622502934
1.1801723996
1.1811654489
1.1615459151
1.1612144460
1.1784141950
1.1808184051
1.1581444802
1.1636186944
1.1757637169
1.1580951150
1.1575833962
1.1765750646
1.1602289550