<VTKFile type="UnstructuredGrid" version="0.1">
	<UnstructuredGrid>
		<Piece NumberOfPoints="1862" NumberOfCells="3498">
			<CellData>
				<DataArray type="Int32" Name="type" NumberOfComponents="1" Format="ascii">
0
0
0
0
0
0
0
0
0
0
0
0
0
0
0
0
1
0
0
1
0
0
0
0
0
0
0
0
0
0
0
0
0
1
0
0
0
0
0
0
0
0
0
0
0
0
0
0
0
0
1
0
0
0
0
0
0
0
0
0
0
1
0
0
0
0
0
0
0
0
0
0
0
0
0
0
0
0
0
0
0
0
0
0
0
0
0
0
0
0
0
0
0
0
0
0
0
0
0
0
0
0
0
0
0
0
0
0
0
0
0
0
0
0
0
0
0
0
0
0
0
0
0
1
0
0
0
0
0
0
0
0
0
0
0
0
0
0
0
0
0
0
0
0
0
0
0
0
0
0
0
1
0
1
1
0
0
0
0
0
0
0
0
0
0
0
0
0
1
0
1
0
0
0
0
1
0
0
0
0
0
0
0
0
1
1
0
0
0
0
0
1
0
0
0
0
0
0
0
0
1
0
0
0
0
0
0
0
0
0
0
0
0
0
0
0
0
0
0
0
0
0
0
0
0
0
0
0
0
0
0
0
0
1
0
0
0
0
0
0
0
0
0
0
0
0
0
0
0
0
0
0
0
0
0
0
0
0
0
0
0
0
0
0
0
0
0
0
0
0
0
0
0
0
0
0
0
0
0
0
0
1
0
0
0
0
0
0
0
0
0
0
0
0
0
0
0
0
0
0
0
0
0
0
0
0
0
0
0
0
0
0
0
0
0
0
0
0
0
0
0
0
0
0
0
0
0
0
0
0
0
0
1
0
0
0
0
0
0
0
0
0
0
0
0
0
0
0
0
0
0
0
0
0
0
0
0
0
0
0
0
0
0
0
0
0
0
0
0
0
0
0
0
0
0
0
0
0
0
0
0
0
0
0
0
0
0
0
0
0
1
0
0
0
0
0
0
0
0
0
0
0
0
0
0
0
0
0
0
0
0
0
0
0
0
0
0
0
0
0
0
0
0
0
0
0
0
0
0
0
0
0
0
0
0
0
0
0
0
0
0
0
0
0
0
0
0
0
0
0
0
0
0
0
0
0
0
0
0
0
0
0
0
0
0
0
0
0
0
0
0
0
0
0
0
0
0
0
0
0
0
0
0
0
0
0
0
0
0
0
0
0
0
0
0
0
0
0
0
0
0
0
0
0
0
0
0
0
0
0
0
0
0
0
0
0
0
0
0
0
0
0
0
1
0
0
0
0
0
0
0
0
0
0
0
0
0
0
0
0
0
0
0
1
0
0
0
0
0
0
0
0
0
0
0
0
0
0
0
0
0
0
0
0
0
0
0
0
0
0
0
0
0
0
0
0
0
0
0
0
0
0
0
0
0
0
0
0
0
0
0
0
0
0
0
0
0
1
0
0
0
0
0
0
0
0
0
0
0
0
0
0
0
0
0
0
0
0
0
0
0
1
0
0
0
0
0
0
0
0
0
0
0
0
0
0
0
0
0
0
0
1
0
0
0
1
0
0
0
0
0
0
0
0
0
0
0
0
0
0
0
0
0
0
0
0
0
0
0
0
0
1
0
0
0
0
0
0
0
1
0
0
0
0
0
0
0
0
0
0
0
0
0
0
0
0
0
0
0
0
0
0
0
0
0
0
1
0
0
0
0
0
0
0
1
0
0
0
0
0
0
1
0
0
0
0
0
0
0
0
0
0
0
0
0
0
0
0
0
0
0
0
0
0
0
0
0
0
0
0
0
0
0
0
0
0
0
0
0
0
1
0
0
0
0
0
1
0
0
0
0
0
0
0
1
0
0
0
0
0
0
0
0
0
0
0
0
0
1
0
0
0
0
0
0
0
0
0
0
0
0
0
0
0
0
0
0
0
0
0
0
0
0
0
0
0
0
0
0
0
0
0
0
0
0
0
0
0
0
0
0
0
0
0
0
0
0
0
0
0
0
0
1
0
0
0
0
0
0
0
0
0
0
0
0
0
0
0
0
0
0
0
1
0
0
0
0
0
0
0
0
0
1
0
0
0
0
0
0
0
0
0
0
0
0
0
0
0
0
0
0
0
0
0
0
0
0
0
0
0
0
0
1
0
1
0
0
0
0
0
0
0
0
0
0
0
0
0
0
0
0
0
0
0
0
0
0
0
0
0
0
0
1
0
0
0
1
0
0
0
0
0
0
0
0
0
0
0
0
0
0
0
0
0
0
0
0
0
0
0
0
0
0
0
0
1
0
0
0
0
0
0
0
0
0
0
0
0
0
0
0
0
0
0
0
0
0
0
0
0
0
1
0
0
0
0
0
0
0
0
0
0
0
0
0
0
0
0
0
0
0
0
0
0
0
1
0
0
0
0
0
0
1
0
0
0
0
0
0
0
0
0
0
0
1
0
0
0
0
0
0
0
0
0
0
0
0
0
0
0
0
0
0
0
0
1
0
0
0
0
0
0
0
0
0
0
0
1
0
0
0
0
0
0
0
0
0
0
0
0
0
0
0
0
0
0
0
0
0
1
0
0
0
0
0
0
0
0
0
1
1
0
1
0
1
0
0
0
0
0
0
0
0
0
0
0
1
0
0
0
0
0
1
1
0
0
0
0
0
0
1
0
0
0
0
0
1
1
1
0
0
0
0
0
0
0
0
0
0
0
0
1
1
0
0
1
0
0
0
0
0
1
0
0
0
1
0
1
0
0
0
0
0
0
0
1
0
0
0
0
0
0
0
1
0
0
1
0
0
0
0
0
0
0
0
0
0
0
0
0
0
0
1
0
0
0
0
0
0
0
0
0
0
0
0
0
0
0
0
0
0
0
0
0
0
0
0
0
0
0
0
0
0
0
0
0
0
0
0
1
0
0
0
0
0
0
1
0
0
0
1
0
0
0
0
0
0
0
0
0
0
0
1
0
0
0
0
0
0
0
0
0
0
0
0
0
0
0
0
0
0
0
0
0
0
0
0
0
0
0
0
0
0
0
0
0
0
0
0
0
0
0
0
1
1
0
0
0
0
0
0
0
0
0
0
0
0
0
1
0
0
0
0
0
0
0
0
0
0
0
0
0
0
0
0
0
0
0
0
0
0
0
0
0
0
0
0
0
0
0
0
0
0
0
0
0
0
0
0
0
0
0
0
0
0
0
0
0
0
0
0
0
0
0
0
0
0
0
0
0
0
0
0
0
0
0
0
0
0
0
0
1
1
0
0
0
0
0
0
0
0
1
0
0
0
0
0
0
0
0
0
0
0
0
0
0
0
0
0
0
0
0
0
0
0
1
0
0
0
0
0
0
0
0
0
0
0
0
0
0
0
0
1
0
0
0
0
0
0
0
0
0
0
0
0
0
0
0
0
0
0
0
0
0
0
0
0
0
0
0
0
0
0
0
0
0
0
0
0
0
0
0
0
0
0
0
0
0
0
0
0
0
0
0
0
0
0
0
0
0
0
0
0
0
0
0
0
0
0
0
0
0
0
0
0
0
0
0
0
0
0
0
0
0
0
0
0
0
0
0
0
0
0
1
1
0
0
0
0
0
1
0
0
0
0
0
0
0
0
0
0
0
0
1
0
0
0
0
0
0
0
0
0
0
0
0
0
0
0
0
0
0
0
0
0
0
0
0
0
0
0
0
0
0
0
0
0
0
0
0
0
0
0
0
0
0
0
0
0
0
0
0
0
0
0
0
0
1
0
1
0
0
0
0
0
0
0
0
0
0
0
0
0
0
0
0
0
0
1
0
0
0
0
0
0
0
0
0
0
0
0
0
0
0
0
0
0
0
0
0
0
0
0
0
0
0
0
0
0
0
0
0
0
0
0
0
0
0
0
0
0
0
0
0
0
0
0
0
0
0
0
0
0
0
0
0
0
0
0
0
0
0
0
0
0
0
0
0
0
1
0
0
0
0
0
0
0
0
0
0
1
0
0
0
0
0
0
0
0
0
0
0
0
0
0
0
0
0
0
0
0
0
0
0
0
0
0
0
0
0
0
0
0
0
0
0
0
0
1
0
0
0
0
0
0
0
0
0
0
0
0
0
0
0
0
0
0
0
0
0
0
0
0
0
0
0
0
0
0
0
0
0
0
0
0
0
0
0
0
0
0
0
0
0
0
0
0
0
0
0
0
0
0
0
0
0
0
0
0
0
0
0
0
0
0
0
0
0
0
0
0
0
0
0
0
0
0
0
0
0
1
0
0
0
0
0
0
0
0
0
0
0
0
0
0
0
0
0
0
0
0
0
0
0
0
0
0
0
0
0
0
0
0
0
0
0
0
0
0
0
0
0
0
0
0
0
0
0
0
0
0
0
0
0
0
0
0
0
0
0
0
0
0
0
0
0
0
0
0
0
0
0
0
0
0
0
0
0
0
0
0
0
0
0
0
0
0
0
0
0
0
0
0
0
0
0
0
0
0
0
0
0
0
0
0
0
0
0
0
0
0
0
0
0
0
0
0
0
0
0
0
0
0
0
1
0
0
0
0
0
0
0
0
0
0
0
0
0
0
0
0
0
0
0
0
0
0
0
0
0
0
0
0
0
0
0
0
0
0
0
0
0
0
0
0
0
0
0
0
0
0
0
0
0
0
0
0
0
0
0
0
0
0
0
0
0
0
0
0
0
0
0
0
0
0
0
0
0
0
0
0
0
0
0
0
0
1
0
0
0
0
0
0
0
1
0
0
0
0
0
0
0
0
0
0
0
0
0
0
0
0
0
0
0
0
0
0
0
0
0
0
0
0
0
0
0
0
0
0
0
0
0
1
0
0
0
0
0
0
0
0
0
0
0
0
0
0
0
0
0
0
0
0
0
1
0
0
0
0
0
0
0
0
0
0
0
0
1
1
0
0
0
0
0
0
0
0
0
0
0
0
0
0
0
1
1
0
1
0
0
0
0
0
0
0
0
0
1
0
0
0
0
0
0
1
0
0
0
0
0
0
0
0
0
0
1
0
0
0
0
1
0
1
0
0
0
0
0
0
0
1
0
0
0
1
0
0
0
1
0
1
1
0
0
1
1
0
0
0
1
0
0
0
1
0
0
0
0
0
0
0
0
0
1
0
0
0
0
0
0
1
0
0
0
0
0
0
0
0
0
0
0
0
0
0
0
0
0
0
0
0
0
0
0
0
0
0
0
1
0
0
1
0
0
0
0
0
0
0
0
0
0
0
0
0
0
0
0
0
0
1
0
0
1
0
0
0
0
0
0
0
0
0
0
0
1
0
0
1
0
0
0
0
0
0
0
0
0
0
0
1
1
0
0
0
0
0
0
0
0
0
0
0
0
1
0
0
0
0
0
0
0
0
0
0
0
0
0
0
0
0
0
1
0
0
0
0
0
0
0
0
0
0
0
0
0
0
0
0
0
1
0
0
0
0
0
0
0
0
0
0
0
0
0
0
0
0
0
0
0
0
0
0
0
0
0
0
0
0
0
0
0
0
0
0
0
0
0
0
0
0
1
0
0
0
0
0
0
0
0
0
0
0
0
0
0
0
0
0
0
0
0
0
0
0
0
0
0
0
0
0
0
0
0
0
0
0
0
0
0
0
0
0
0
0
0
0
1
0
0
0
0
0
0
0
0
0
0
0
0
0
0
0
0
0
0
0
0
0
0
0
0
0
0
0
0
0
0
0
0
0
0
0
0
0
0
0
0
0
0
0
0
0
0
0
1
0
0
0
0
0
0
0
0
0
0
1
0
0
0
0
0
0
0
0
0
0
0
0
0
0
0
1
0
0
1
0
0
0
0
0
0
0
0
0
0
0
0
0
0
0
0
0
0
0
0
0
0
0
1
0
0
0
0
0
0
0
0
0
0
0
0
0
0
0
0
0
0
0
0
0
0
0
0
0
0
0
0
0
0
0
0
0
0
0
1
0
0
0
0
0
0
0
0
0
0
0
0
0
0
0
0
0
0
0
0
0
0
0
0
0
0
0
0
0
0
0
0
0
0
0
0
0
0
0
0
0
0
0
0
0
0
0
0
0
0
0
0
0
0
0
0
0
0
0
0
0
0
0
0
0
0
0
0
0
0
0
0
0
0
0
0
1
0
0
0
0
0
0
0
0
0
0
0
0
0
0
0
0
0
0
0
0
0
0
0
0
0
0
0
0
0
0
0
0
0
0
0
0
0
0
0
1
0
0
0
0
0
0
0
0
0
0
0
0
1
1
0
0
0
0
0
0
0
0
0
0
0
0
0
0
0
0
0
0
0
0
0
0
0
0
0
0
0
0
0
0
0
0
0
0
0
0
0
0
0
0
0
0
0
0
0
0
0
0
0
0
0
0
0
0
0
0
0
0
0
0
0
0
0
0
0
0
0
0
0
0
0
0
0
0
0
0
0
0
0
0
0
0
0
0
0
0
0
0
0
0
0
0
0
0
0
0
0
0
0
0
0
1
0
1
0
0
0
0
0
0
0
1
1
1
1
0
0
0
0
0
0
0
0
0
0
0
0
0
0
0
0
0
0
0
0
0
0
0
0
0
0
0
0
1
1
0
0
0
0
0
0
0
0
0
0
0
0
0
0
0
0
0
0
1
0
0
0
0
0
0
0
1
1
0
1
1
0
0
1
0
0
0
0
0
0
0
1
0
1
0
0
0
0
0
0
0
0
0
0
0
0
0
0
0
0
0
0
0
0
0
0
0
0
0
0
0
1
1
0
0
0
1
1
0
0
0
0
1
0
0
1
0
1
0
0
0
0
0
1
0
0
0
1
0
0
0
0
0
0
0
0
0
0
0
0
0
0
0
0
0
0
0
0
0
0
0
0
0
0
0
1
0
0
0
0
0
0
1
0
0
0
0
0
0
0
0
0
0
0
0
0
0
0
0
0
0
0
0
0
0
0
0
0
0
0
0
0
1
0
1
0
0
0
0
0
0
0
1
0
0
0
0
0
0
0
0
0
0
0
1
0
0
0
0
0
0
0
0
0
1
0
0
0
0
0
0
0
1
0
0
0
0
0
0
0
1
0
0
0
0
0
0
0
0
0
0
0
0
0
0
0
0
0
0
0
1
0
1
0
0
0
0
0
1
0
0
0
0
0
0
0
0
0
0
0
0
0
0
0
0
0
0
0
0
0
0
0
0
0
1
0
1
0
0
0
0
0
0
0
0
0
1
0
0
0
0
0
1
0
0
0
0
0
0
0
0
0
0
0
0
0
0
0
1
0
0
0
0
0
0
0
0
1
0
0
0
0
0
0
0
0
0
0
0
0
0
0
0
0
0
0
0
0
0
0
0
0
0
0
0
0
0
0
1
0
0
0
0
0
0
0
0
0
0
0
0
0
0
0
0
1
0
0
0
0
0
0
0
0
1
0
0
0
0
0
0
0
0
0
1
0
0
0
0
0
1
0
0
0
0
0
0
0
0
0
0
0
0
0
0
0
0
0
0
0
1
0
0
0
0
0
0
1
0
0
0
0
0
0
0
0
1
0
0
0
0
0
0
0
0
0
0
0
0
0
0
1
0
0
1
0
0
0
1
0
0
0
0
0
0
0
0
0
0
0
0
0
0
0
0
1
0
0
0
0
0
0
0
0
0
0
1
0
1
0
0
0
0
0
0
1
0
0
0
0
0
0
0
0
0
0
0
0
0
0
0
0
0
0
0
0
0
0
0
0
0
0
0
1
1
0
0
0
0
0
0
1
0
0
0
0
0
0
0
0
0
0
0
0
0
1
0
0
0
0
0
0
0
1
0
0
0
0
0
0
0
0
0
0
0
0
0
0
0
0
0
0
0
0
0
0
0
0
0
0
0
1
0
0
0
0
0
0
0
0
0
0
1
0
0
1
0
0
0
0
0
0
0
0
0
0
0
0
0
0
0
0
0
0
0
0
0
0
0
0
0
0
0
0
0
1
0
0
0
0
0
0
0
1
0
0
0
0
0
0
0
1
0
0
0
0
1
0
0
0
0
0
0
0
0
0
0
0
1
0
1
0
0
0
1
0
				</DataArray>
				<DataArray type="Float64" Name="h" NumberOfComponents="1" Format="ascii">
1.0581355886
1.0581617584
1.0276245802
1.0350489855
1.0344741307
1.0325609356
1.0365721226
1.0509192316
1.0421457102
1.0569124634
1.0399719979
1.0286028536
1.0672237558
1.0416799237
1.0568790150
1.0764726053
1.0287361342
1.0626432222
1.0652776999
1.0355735138
1.0196363614
1.0748414832
1.0660360602
1.0286823162
1.0326071818
1.0769216594
1.0805056748
1.0694287807
1.0543292367
1.0465295662
1.0391355522
1.0588306016
1.0784672501
1.0218532079
1.0119874631
1.0394791227
1.0139865581
1.0755364222
1.0762184264
1.0226738915
1.0456389480
1.0504663337
1.0768698269
1.0667911408
1.0307282805
1.0665885513
1.0699861691
1.0107399074
1.0045818033
1.0115588364
1.0157394229
1.0531702692
1.0587017632
1.0304158178
1.0364131673
1.0829496964
1.0571608210
1.0059426586
1.0101461818
1.0208512182
1.0019146512
1.0018399938
1.0045928030
1.0431403009
1.0711301495
1.0655950676
1.0241792565
1.0115937423
1.0031946174
1.0028219446
1.0072566367
1.0259087800
1.0824677878
1.0229424713
1.0151836768
1.0866887591
1.0080347803
1.0042657908
1.0069653672
1.0815261003
1.0008956631
1.0587175219
1.0004119298
1.0244427472
1.0855638242
1.0812309562
1.0007163715
1.0433743486
1.0066911731
1.0014821380
1.0015674021
1.0835294811
1.0025049460
1.0044936650
1.0700688475
1.0755400291
1.0642235939
1.0831924396
1.0771326510
1.0011056227
1.0008064837
1.0006142041
1.0522153734
1.0053567618
1.0645230734
1.0418068065
1.0798994550
1.0026782851
1.0065786529
1.0610607906
1.0073738837
1.0026634763
1.0026390751
1.0026755082
1.0326120687
1.0001445615
1.0417918688
1.0561548317
1.0007664936
1.0169612579
1.0597708153
1.0537286306
1.0872918401
1.0505291937
1.0045260890
1.0015033441
1.0238706297
1.0546933194
1.0001139885
1.0002064099
1.0004341309
1.0724959806
1.0113177183
1.0000295028
1.0514423367
1.0007905930
1.0778305746
1.0000371376
1.0002442695
1.0815722291
1.0599919965
1.0493626035
1.0002100296
1.0833331368
1.0833105804
1.0005123476
1.0800433278
1.0000181329
1.0547224089
1.0000030883
1.0776982080
1.0000136239
1.0000164732
1.0000005520
1.0003510282
1.0000500415
1.0000024564
1.0650117621
1.0000025787
1.0585050375
1.0834371536
1.0000139186
1.0801448072
1.0617642152
1.0610820201
1.0000932412
1.0851591336
1.0815924465
1.0529556661
1.0000249936
1.0000036823
1.0534631535
1.0000009765
1.0677897326
1.0870163028
1.0000000258
1.0852486682
1.0000193086
1.0000001343
1.0645659466
1.0000959152
1.0886137279
1.0614473550
1.0889721979
1.0544343922
1.0528890257
1.0868645405
1.0000003872
1.0535242721
1.0498776505
1.0899942237
1.0000001798
1.0576429384
1.0883008230
1.0000000505
1.0000442860
1.0716354469
1.0911324753
1.0895280287
1.0000005379
1.0497112348
1.0871809781
1.0517204625
1.0000004543
1.0920486986
1.0712680875
1.0831030899
1.0794370320
1.0906055780
1.0866224729
1.0913708877
1.0547758007
1.0713338672
1.0702524150
1.0813172204
1.0925738061
1.0848594451
1.0744035739
1.0899669294
1.0645021718
1.0913990820
1.0044603781
1.0883640742
1.0244856397
1.0887938928
1.0000033852
1.0004059503
1.0630547633
1.0927172282
1.0014619705
1.0000013277
1.0114584684
1.0795703723
1.0000006544
1.0000193426
1.0430836104
1.0929314936
1.0855326090
1.0630790344
1.0892338114
1.0941948641
1.0822765999
1.0767818378
1.0882895640
1.0812107693
1.0846481126
1.0739105621
1.0915997502
1.0838200602
1.0789354446
1.0873541845
1.0927521815
1.0767998173
1.0939936054
1.0953336818
1.0761618315
1.0864713067
1.0829089771
1.0702513623
1.0170322877
1.0910698890
1.0930424522
1.0755464135
1.0343190257
1.0860637720
1.0000435929
1.0000078928
1.0943093844
1.0000014222
1.0071769168
1.0007522707
1.0900299723
1.0025762355
1.0536586389
1.0332849563
1.0953425570
1.0877215072
1.0559186273
1.0172361811
1.0918259328
1.0007789329
1.0000016536
1.0000081372
1.0000418198
1.0025186903
1.0072218969
1.0731866591
1.0875632982
1.0785204566
1.0804779504
1.0869875126
1.0958078168
1.0840841689
1.0834986099
1.0918146106
1.0972015642
1.0909753175
1.0856985073
1.0817943365
1.0761617020
1.0801784437
1.0851425806
1.0945053691
1.0982240855
1.0967207707
1.0896594529
1.0957350902
1.0889768458
1.0804036377
1.0957250794
1.0669850093
1.0850408568
1.0000034415
1.0966447367
1.0013195240
1.0247308003
1.0938905909
1.0042687449
1.0000170757
1.0928601272
1.0459704698
1.0917031431
1.0111168915
1.0000901011
1.0928071304
1.0834802175
1.0686456883
1.0000181819
1.0449299808
1.0112169812
1.0013816867
1.0000840919
1.0000038739
1.0975322662
1.0249706053
1.0948190612
1.0041496028
1.0891764167
1.0001165115
1.0947530572
1.1005063282
1.0938611040
1.0813169323
1.0989220350
1.0854501461
1.0896040120
1.0851283083
1.0824889123
1.0030091781
1.1002358468
1.1013393205
1.0687755526
1.0870053289
1.0822474925
1.0007684479
1.0921497805
1.1000330408
1.0991579557
1.0915325452
1.0411261951
1.0214592765
1.0000982468
1.0801799124
1.0976959101
1.0996151806
1.0872419561
1.1059898848
1.1024824959
1.0966076274
1.0823788374
1.0934530723
1.0123784838
1.0832764683
1.0000344793
1.0345197348
1.0583765910
1.0001737148
1.0800603153
1.0022075729
1.0976587225
1.0989132010
1.0068014851
1.0000077263
1.0971660190
1.0165350401
1.0959757489
1.0950847783
1.0784423621
1.0914831909
1.1123434096
1.0000084442
1.0996275768
1.0577026046
1.1139912543
1.0001587147
1.0345624552
1.0749584184
1.0902573570
1.0987502085
1.1169453369
1.0958907649
1.0023362269
1.1169509306
1.0168052140
1.1158399043
1.0000377105
1.0065582426
1.0969707870
1.0904287625
1.1155151179
1.0795382258
1.1025405225
1.0331587487
1.1014769257
1.0915649946
1.0008903717
1.0058873002
1.0972663459
1.0430554992
1.0988403278
1.1080487858
1.1100632912
1.0864497384
1.0087355484
1.0003738871
1.0802586376
1.0001329491
1.0826865921
1.0285690779
1.1023461344
1.0989070685
1.0003126226
1.0781573249
1.0044755271
1.0987863332
1.0880576879
1.0215162266
1.0153301057
1.0005427607
1.1097071531
1.1026521022
1.0992682553
1.0888218561
1.0593022961
1.1051433744
1.0944940111
1.0973029519
1.1016354038
1.0577457587
1.0362687320
1.0854723044
1.0000313864
1.0823815651
1.1007137115
1.1013330631
1.1100624902
1.0002429362
1.0063506843
1.1000588153
1.0016983539
1.0832188899
1.1026802019
1.0944224101
1.0000161303
1.0996065644
1.0458687234
1.0929189919
1.0972250525
1.1186931609
1.0876040497
1.0003155167
1.1012940927
1.0104206601
1.1053248144
1.1012648455
1.0870953217
1.0011811897
1.1180662297
1.0830800060
1.0782232912
1.0788632771
1.1058427410
1.0907589098
1.0000730888
1.0312162422
1.0110887237
1.0037852132
1.0831431780
1.0699115975
1.0922778480
1.1043267453
1.0988615665
1.0004840314
1.0835087379
1.0749592908
1.1068021523
1.0980070439
1.0049868359
1.0241555303
1.0741082464
1.0969198411
1.0510533004
1.1138428836
1.0987505007
1.1169449424
1.1037800171
1.0947356966
1.0832128735
1.1050849239
1.1025347581
1.0831425358
1.1059680712
1.1005465751
1.1012938687
1.1109124299
1.0830829579
1.0908160818
1.1057394589
1.0831871708
1.1023789676
1.1059692178
1.1009189945
1.1036274523
1.0000578124
1.0939950477
1.0439440591
1.0553360887
1.1008742448
1.1140530871
1.1082623589
1.0626605270
1.0944223863
1.0970449410
1.0872548001
1.0876059690
1.1221711720
1.0835117524
1.0980066270
1.0832159429
1.1140524162
1.1058437278
1.1239467552
1.1097759960
1.0832711195
1.1228178482
1.0984109264
1.0660289287
1.1053257628
1.1243568386
1.0969030040
1.0004719500
1.1183401535
1.0902607176
1.1169678114
1.0839233934
1.1136703113
1.1082067469
1.0812892332
1.0167035588
1.0020528336
1.1073575632
1.0683755554
1.0063487595
1.0907597733
1.1197101948
1.0152983884
1.1037803606
1.0929171340
1.1017432624
1.0000314121
1.1053346430
1.1021829322
1.0774401876
1.1014099142
1.0988370243
1.0822569136
1.1036671472
1.1076344095
1.1005445848
1.1118230668
1.1025204851
1.0576814381
1.0969186490
1.0374971895
1.1046953035
1.0874151237
1.0005433398
1.0330967115
1.0973117544
1.1000841504
1.0001332046
1.1262374568
1.1066362842
1.1207009171
1.1185694523
1.1007133680
1.1121626199
1.0826500193
1.0009224004
1.1197911393
1.1166659251
1.1101444541
1.0038900716
1.0965721041
1.0802289348
1.1241768236
1.1290991850
1.0226528207
1.0058786218
1.0313994065
1.1307793553
1.0846111665
1.0458490269
1.0743988880
1.1076338560
1.0915309976
1.1019030416
1.0872564532
1.1053352753
1.1082627196
1.0939951128
1.0001524642
1.1100110291
1.0830909022
1.0831897166
1.1070376946
1.0900065047
1.0295150664
1.0839260110
1.1299132008
1.1290990804
1.1077065234
1.1337200906
1.1082067508
1.1023792575
1.1073582196
1.0902614446
1.0805586042
1.0128058557
1.0983582643
1.1026552425
1.0832735501
1.1313804859
1.1269224223
1.1134099936
1.0003217597
1.0730879072
1.1169674930
1.1294487362
1.0091026662
1.1309735809
1.1070823729
1.0812755133
1.0893567104
1.1499513919
1.1127190917
1.1129551445
1.0984109186
1.0964343351
1.1016140001
1.0820555053
1.0846098007
1.1016325489
1.0548519791
1.0046464233
1.1013665568
1.0725668764
1.1106473449
1.0817375160
1.0953812814
1.0019829328
1.0005515448
1.1221708136
1.1337827916
1.1260790494
1.1213977157
1.0820049107
1.1300274266
1.1366855142
1.0007746977
1.0079723906
1.1234655963
1.1262856852
1.0666300869
1.1287396780
1.1306005076
1.1319457305
1.0329397805
1.0027508454
1.0151507809
1.1206214031
1.1059486503
1.1172516216
1.0988639841
1.1175016692
1.0405373737
1.0206056532
1.0855631052
1.0650250318
1.1360391129
1.0087106772
1.0021564360
1.0756073743
1.0128058420
1.0353419467
1.0314000409
1.0008955548
1.1183401600
1.0053209529
1.0730790131
1.0947645949
1.0011298538
1.0743990692
1.0030195942
1.0006699026
1.0683760148
1.0014806268
1.0521540371
1.0272777965
1.0061024594
1.0006327078
1.0708007270
1.0544303236
1.0468396280
1.0468750028
1.0544786718
1.0331506138
1.0285955833
1.0399613747
1.0446119065
1.0417801128
1.0325390145
1.0345017962
1.0418234016
1.0421705909
1.0568630365
1.0365541329
1.0513099698
1.0446255113
1.0331625191
1.0621695077
1.0626418870
1.0350545821
1.0276369411
1.0652445155
1.0465261936
1.0726104451
1.0259255126
1.0509319338
1.0769230118
1.0326043604
1.0569118633
1.0711640555
1.0672356257
1.0228169244
1.0791094486
1.0685083879
1.0513143259
1.0391328079
1.0621766939
1.0218531935
1.0784662027
1.0587672540
1.0810306058
1.0226613231
1.0795766298
1.0287348473
1.0764719319
1.0768496978
1.0761725273
1.0259293110
1.0726094774
1.0455831576
1.0416846162
1.0355710658
1.0228251889
1.0660963473
1.0143091003
1.0748521691
1.0173362621
1.0711734138
1.0196393896
1.0685428228
1.0736297884
1.0631572181
1.0107349416
1.0791086580
1.0306963091
1.0157393317
1.0699250799
1.0695141015
1.0287057704
1.0544037051
1.0570705519
1.0803854504
1.0805069329
1.0171669416
1.0674736764
1.0796042956
1.0399219412
1.0091542113
1.0810298102
1.0586184613
1.0143203241
1.0074063366
1.0074888873
1.0736544292
1.0173433377
1.0235929902
1.0632372969
1.0395299614
1.0710550713
1.0755723357
1.0206913833
1.0119923175
1.0045919249
1.0115929810
1.0536922227
1.0139880257
1.0430774863
1.0399794795
1.0117453033
1.0139670122
1.0668741825
1.0229196829
1.0285559626
1.0258783300
1.0824677701
1.0037514141
1.0842823339
1.0773150124
1.0171773994
1.0013760716
1.0091543121
1.0505376234
1.0080304907
1.0072528030
1.0159612365
1.0151685900
1.0804100079
1.0787594109
1.0031943027
1.0106397922
1.0674714666
1.0028226214
1.0236159011
1.0207130350
1.0733336896
1.0537746599
1.0172566927
1.0242751244
1.0169983608
1.0045828968
1.0532492852
1.0074882090
1.0666736331
1.0586423347
1.0244429198
1.0460139901
1.0074043780
1.0115532784
1.0019147075
1.0018394718
1.0787860976
1.0016100062
1.0159746391
1.0101544974
1.0189196893
1.0285953380
1.0876128240
1.0847438529
1.0117541754
1.0106394675
1.0330150034
1.0364629781
1.0046856852
1.0037517635
1.0013756438
1.0829486256
1.0486100103
1.0104574116
1.0842768957
1.0304618916
1.0139798117
1.0208766432
1.0835318163
1.0059438807
1.0773544321
1.0025039566
1.0172682024
1.0053574167
1.0770967056
1.0460806211
1.0863500502
1.0243056131
1.0006144228
1.0319449472
1.0019985380
1.0331212673
1.0656697383
1.0008041475
1.0241628291
1.0066196796
1.0831858427
1.0008440144
1.0755097417
1.0360139675
1.0169763584
1.0011052534
1.0418425300
1.0733753419
1.0002043268
1.0486851576
1.0065740355
1.0026603898
1.0016100207
1.0104653323
1.0026379867
1.0330591996
1.0866755225
1.0114137499
1.0189415170
1.0042674695
1.0847405103
1.0009567434
1.0876042900
1.0073806663
1.0609910760
1.0046878638
1.0019990336
1.0002052667
1.0400322834
1.0008437194
1.0812252606
1.0537041284
1.0109086423
1.0066190470
1.0678346775
1.0360667479
1.0331460499
1.0855540048
1.0815289735
1.0007163616
1.0004139752
1.0008956380
1.0417248620
1.0069668817
1.0318946530
1.0597766748
1.0433606754
1.0863402997
1.0009572016
1.0724845299
1.0170037424
1.0726163214
1.0015011522
1.0042240452
1.0015653077
1.0066950452
1.0700970073
1.0044931621
1.0003942873
1.0014863863
1.0015685094
1.0015041395
1.0036731293
1.0045257819
1.0238449182
1.0113839794
1.0002059501
1.0522657936
1.0004128950
1.0240147121
1.0400978845
1.0678316518
1.0109160877
1.0027047527
1.0514435678
1.0007896212
1.0113119962
1.0645191527
1.0642021019
1.0833225456
1.0319319623
1.0493618426
1.0073379812
1.0726111974
1.0003952244
1.0026767755
1.0026819501
1.0760568685
1.0036724228
1.0015662128
1.0326514033
1.0547249121
1.0169653433
1.0002097521
1.0522749849
1.0001448185
1.0042261648
1.0005119540
1.0015061085
1.0798775315
1.0517186585
1.0885077249
1.0410181646
1.0000087311
1.0004140039
1.0027054549
1.0749151480
1.0000515839
1.0008045550
1.0003729306
1.0169750036
1.0239258746
1.0000136248
1.0561535070
1.0002977734
1.0007674740
1.0474428734
1.0776986080
1.0000164528
1.0003511637
1.0760537800
1.0522757598
1.0815917926
1.0610857189
1.0073385951
1.0000057712
1.0517174381
1.0567080799
1.0000077539
1.0494160037
1.0318491438
1.0505302129
1.0001140701
1.0834389990
1.0585609865
1.0872707261
1.0004345408
1.0449089553
1.0801441436
1.0001458876
1.0000138729
1.0546923229
1.0000025718
1.0003729506
1.0778274648
1.0000295062
1.0000127172
1.0590149688
1.0008068744
1.0000665248
1.0000371848
1.0000009755
1.0417536006
1.0719609143
1.0002441945
1.0474435642
1.0408872334
1.0749137377
1.0000087354
1.0884961236
1.0002978661
1.0000249263
1.0000889316
1.0000516213
1.0000036814
1.0677922674
1.0000030978
1.0614473701
1.0667216153
1.0585565500
1.0567069309
1.0002035540
1.0000057154
1.0000010061
1.0833298079
1.0000181994
1.0800439926
1.0645671300
1.0000077836
1.0449105618
1.0493284847
1.0647023659
1.0599898745
1.0000956057
1.0001459447
1.0852534739
1.0001305858
1.0815712396
1.0000057863
1.0585461261
1.0535230649
1.0000501786
1.0000024589
1.0719593064
1.0773196004
1.0000127407
1.0468521619
1.0417528767
1.0589231961
1.0544328687
1.0000666544
1.0000005523
1.0650093386
1.0000889226
1.0868743935
1.0820310826
1.0000000505
1.0851525055
1.0585457149
1.0002043867
1.0000440634
1.0647025911
1.0000010081
1.0001305405
1.0000423934
1.0557252978
1.0000057258
1.0666750953
1.0568682460
1.0000001797
1.0000443995
1.0617633123
1.0000935855
1.0883145739
1.0000082256
1.0585055484
1.0872109584
1.0000000767
1.0534644483
1.0517185936
1.0870084148
1.0000004535
1.0772643850
1.0529573436
1.0497095035
1.0468527193
1.0895420832
1.0000001783
1.0000001344
1.0677444052
1.0557262373
1.0568678555
1.0547743671
1.0000082605
1.0000425820
1.0682145274
1.0000965777
1.0886030538
1.0000443898
1.0000000258
1.0820017077
1.0558673956
1.0538435263
1.0000194129
1.0713332043
1.0906185836
1.0899807537
1.0000013245
1.0000000767
1.0498790298
1.0000001785
1.0000012315
1.0000002367
1.0889507091
1.0528916745
1.0000003879
1.0914119032
1.0739099080
1.0846476621
1.0746532318
1.0812068284
1.0911189133
1.0538443969
1.0935610539
1.0608260100
1.0882964706
1.0771058551
1.0677436664
1.0929393771
1.0576436245
1.0601027248
1.0000971699
1.0716350238
1.0672372526
1.0829059534
1.0791896342
1.0939991874
1.0864747302
1.0767977191
1.0916090092
1.0558676859
1.0630798096
1.0682142856
1.0000033468
1.0947938986
1.0920378999
1.0000012345
1.0072433337
1.0900389579
1.0000002368
1.0334536008
1.0918367614
1.0000080997
1.0007753646
1.0000958170
1.0732905816
1.0943119881
1.0025741348
1.0000005383
1.0171206896
1.0861033816
1.0000014212
1.0001985265
1.0000432893
1.0538321749
1.0913603038
1.0869876422
1.0807236194
1.0645020574
1.0909813956
1.0958107227
1.0771079563
1.0935543549
1.0746539928
1.0676785779
1.0961421598
1.0834940224
1.0785186864
1.0608265317
1.0866162825
1.0794396872
1.0831042461
1.0712681104
1.0899565813
1.0851397025
1.0804001958
1.0601025912
1.0889804289
1.0945108841
1.0744045068
1.0925645522
1.0967206701
1.0819612095
1.0737295281
1.0848569888
1.0791928891
1.0813197341
1.0672366022
1.0114196421
1.0928668846
1.0972933110
1.0948173971
1.0835403876
1.0451362855
1.0795082791
1.0001999026
1.0000194513
1.0000180781
1.0927085732
1.0000006545
1.0001918430
1.0112751342
1.0013785924
1.0883549943
1.0000033579
1.0014655889
1.0429308180
1.0243789809
1.0966410803
1.0917133138
1.0671399874
1.0248801202
1.0887691498
1.0004080364
1.0000964264
1.0000034382
1.0947912722
1.0000033961
1.0000894465
1.0042772820
1.0003797387
1.0044569112
1.0629324726
1.0891767792
1.0828539178
1.0767829509
1.0676787594
1.0813141663
1.0855333026
1.0941896355
1.0987376644
1.0851243790
1.0961428598
1.0822810173
1.0938651665
1.0989210132
1.0892278978
1.0807276334
1.0870031195
1.0822435697
1.0737292330
1.0786048160
1.0838233989
1.0927450389
1.0996118187
1.0835645762
1.0953311377
1.0819658426
1.0915353259
1.0976976252
1.0873513079
1.0789380770
1.0969670054
1.0557351843
1.0904448627
1.0000016535
1.0953433580
1.0023370313
1.0171440880
1.0959794114
1.0025192872
1.0003819595
1.0003596587
1.0000375038
1.0998029975
1.0910624200
1.0578724514
1.0876864314
1.0168947271
1.0000421012
1.0950820083
1.0754393556
1.0785270699
1.0000079273
1.0972964154
1.0006855366
1.0341441365
1.0071528767
1.0007552792
1.0001727289
1.0000077165
1.0989085358
1.0346874820
1.0930362101
1.0068262310
1.0001930870
1.0008902177
1.0989012245
1.1015507735
1.0430890814
1.0875636316
1.0828585143
1.0002293175
1.0026566100
1.0972681797
1.1003778176
1.1023438848
1.0918102751
1.0673386189
1.0087435190
1.0001963103
1.0804803291
1.0972006817
1.0987420003
1.0864467522
1.0915652647
1.0840886376
1.1025410848
1.1058129315
1.0880680950
1.0826834104
1.0969787150
1.0199243758
1.0841197364
1.0017317817
1.0992010325
1.1026773648
1.0567412122
1.0857013648
1.0817979848
1.0000572720
1.0013864068
1.0944955620
1.0992920201
1.1013324169
1.0896570003
1.0531997530
1.0144027065
1.0000578197
1.0786055332
1.0957317428
1.0982260046
1.0845776679
1.0888203718
1.0835690597
1.1038594737
1.1043136621
1.0934362929
1.0816012349
1.0877644971
1.0079092153
1.0832152137
1.1123478612
1.0000728041
1.1024289344
1.0248342350
1.1181521023
1.0006379174
1.0700020565
1.0000846201
1.0782222078
1.0756808629
1.0928096364
1.0037913434
1.0922775517
1.1207117118
1.0988607249
1.0006877736
1.0975356461
1.1160742947
1.0041410481
1.1143505564
1.0000038735
1.0996075335
1.0242464037
1.0938859403
1.0927999313
1.0684996388
1.1177328990
1.0947348316
1.1138427487
1.0000161106
1.1012624055
1.0457778755
1.1166665603
1.0003145290
1.0459965028
1.0003613949
1.0797073026
1.0775025019
1.0855503335
1.0011766090
1.0951001046
1.1198576502
1.0972175232
1.0013216393
1.0998073785
1.1197913327
1.0110640398
1.1186936960
1.0000171585
1.0104559066
1.0957285630
1.0849863957
1.1180662514
1.0871206435
1.1009334629
1.0330180379
1.0235201245
1.0010763803
1.1057406119
1.1003749400
1.1009213098
1.1002997368
1.0896041386
1.0004788332
1.0836574633
1.0035326888
1.0004784961
1.1088952173
1.0947507101
1.0318453871
1.0977887864
1.1058120756
1.0978377848
1.1076019066
1.1023434767
1.0854538869
1.0054030770
1.0001963465
1.0701268891
1.0167077933
1.0318849205
1.0626679011
1.0000653079
1.0824920294
1.1017519151
1.0199086674
1.1005080128
1.1059892679
1.1080497942
1.0004720303
1.0020532891
1.0978425336
1.0970478865
1.0005776072
1.0673161123
1.0026553018
1.0054018816
1.0841240078
1.1015541066
1.0969744886
1.0800727992
1.0003738582
1.1002332415
1.0146695334
1.0099365226
1.0285818635
1.0002830011
1.1075911175
1.1024816991
1.1014338307
1.0968233074
1.0872442016
1.0002294375
1.0708598114
1.0019256702
1.1069015705
1.0921481582
1.0214339870
1.0955017049
1.1098044272
1.1098052899
1.1009426402
1.0845813674
1.0030070659
1.0007684657
1.0454682195
1.0262545447
1.0764376524
1.0000171479
1.0816030346
1.0993444380
1.0987870709
1.0411036362
1.0991576378
1.1076014006
1.0001524953
1.0038790961
1.0966051570
1.0990587259
1.0001588805
1.0877537272
1.0079045739
1.0028951686
1.0832803799
1.1013425550
1.0992943616
1.0687466318
1.0916096130
1.0000084437
1.0458500599
1.0038904165
1.0011776276
1.0971641924
1.0788641338
1.0344250719
1.0951003876
1.1021842506
1.0877853777
1.0958934171
1.1158393459
1.0009224720
1.0848729100
1.0756817555
1.0865116122
1.0001594038
1.1123237865
1.0982519158
1.0091030653
1.0065388794
1.0790358684
1.1003265700
1.0264801588
1.1123480655
1.0902577455
1.1156979132
1.1156974057
1.1030033015
1.0996301665
1.0794641606
1.0006766614
1.1155151578
1.1199192919
1.0832723859
1.0800615779
1.1036672597
1.1035086403
1.0763284216
1.0812708583
1.1047452007
1.0724932371
1.0945108331
1.0888111037
1.0000346204
1.0226534949
1.0071757681
1.0022066416
1.0827787540
1.0582320537
1.0855506891
1.1030543695
1.0976617312
1.1199188488
1.0003217927
1.0839306111
1.0775035492
1.0851453508
1.0006394330
1.1066361419
1.0950760027
1.0030864064
1.0164642286
1.0763292210
1.0927847720
1.0397149041
1.1123435803
1.0928098963
1.1198572629
1.1077484632
1.1010313604
1.1024314964
1.0914682242
1.0003519637
1.1177329120
1.0830054011
1.0797085518
1.0867668090
1.1044888561
1.1018425672
1.0808707246
1.0790353095
1.1042880007
1.0990151050
1.1210196767
1.0848763403
1.0982512819
1.1088943401
1.0832755098
1.0836526179
1.1097062256
1.1044897172
1.1271685126
1.1039752269
1.1041682955
1.0826780824
1.1240855305
1.0011711543
1.1058596228
1.1002414452
1.0678201562
1.1042895261
1.1240497623
1.1002385291
1.0934290861
1.1023419322
1.1021074400
1.0054078111
1.0000572899
1.1109130950
1.1038594735
1.0011709613
1.1198432438
1.0976619445
1.0330130640
1.0143823403
1.1150531231
1.0631323005
1.1009344280
1.0851249046
1.1002972805
1.0934476369
1.1115601944
1.1173506420
1.0044772701
1.1073938789
1.0672099805
1.0001166214
1.0085881609
1.1043125799
1.0505023614
1.0008469683
1.1095901119
1.0737493280
1.0504923255
1.0110222486
1.0916095906
1.1234131950
1.0932516393
1.0885643440
1.0865143455
1.0123715455
1.1252552560
1.0839340943
1.0950753141
1.1130269608
1.0830078324
1.0968201442
1.1115593794
1.1008764971
1.1047465975
1.1274676256
1.1026506561
1.1107602561
1.0830783637
1.1262857810
1.1021413002
1.0588714240
1.1030042525
1.1281316994
1.1014789198
1.1000564873
1.1051421881
1.0947644567
1.0000982421
1.0439476641
1.0005775017
1.1210594977
1.0929033610
1.0592967713
1.1189902739
1.0507093171
1.0831121588
1.1009406036
1.0008471035
1.1130275315
1.1154217265
1.1089185083
1.0730786512
1.0146670099
1.0016980575
1.1094433979
1.0575552694
1.0362609293
1.0054007551
1.0888124923
1.1223444156
1.0854669643
1.0852280737
1.0851480755
1.0099129032
1.1010313976