<VTKFile type="UnstructuredGrid" version="0.1">
	<UnstructuredGrid>
		<Piece NumberOfPoints="1862" NumberOfCells="3498">
			<CellData>
				<DataArray type="Int32" Name="type" NumberOfComponents="1" Format="ascii">
0
0
0
0
0
0
0
0
0
0
0
0
0
0
0
0
1
0
0
1
0
0
0
0
0
0
0
0
0
0
0
0
0
1
0
0
0
0
0
0
0
0
0
0
0
0
0
0
0
0
1
0
0
0
0
0
0
0
0
0
0
1
0
0
0
0
0
0
0
0
0
0
0
0
0
0
0
0
0
0
0
0
0
0
0
0
0
0
0
0
0
0
0
0
0
0
0
0
0
0
0
0
0
0
0
0
0
0
0
0
0
0
0
0
0
0
0
0
0
0
0
0
0
1
0
0
0
0
0
0
0
0
0
0
0
0
0
0
0
0
0
0
0
0
0
0
0
0
0
0
0
1
0
1
1
0
0
0
0
0
0
0
0
0
0
0
0
0
1
0
1
0
0
0
0
1
0
0
0
0
0
0
0
0
1
1
0
0
0
0
0
1
0
0
0
0
0
0
0
0
1
0
0
0
0
0
0
0
0
0
0
0
0
0
0
0
0
0
0
0
0
0
0
0
0
0
0
0
0
0
0
0
0
1
0
0
0
0
0
0
0
0
0
0
0
0
0
0
0
0
0
0
0
0
0
0
0
0
0
0
0
0
0
0
0
0
0
0
0
0
0
0
0
0
0
0
0
0
0
0
0
1
0
0
0
0
0
0
0
0
0
0
0
0
0
0
0
0
0
0
0
0
0
0
0
0
0
0
0
0
0
0
0
0
0
0
0
0
0
0
0
0
0
0
0
0
0
0
0
0
0
0
1
0
0
0
0
0
0
0
0
0
0
0
0
0
0
0
0
0
0
0
0
0
0
0
0
0
0
0
0
0
0
0
0
0
0
0
0
0
0
0
0
0
0
0
0
0
0
0
0
0
0
0
0
0
0
0
0
0
1
0
0
0
0
0
0
0
0
0
0
0
0
0
0
0
0
0
0
0
0
0
0
0
0
0
0
0
0
0
0
0
0
0
0
0
0
0
0
0
0
0
0
0
0
0
0
0
0
0
0
0
0
0
0
0
0
0
0
0
0
0
0
0
0
0
0
0
0
0
0
0
0
0
0
0
0
0
0
0
0
0
0
0
0
0
0
0
0
0
0
0
0
0
0
0
0
0
0
0
0
0
0
0
0
0
0
0
0
0
0
0
0
0
0
0
0
0
0
0
0
0
0
0
0
0
0
0
0
0
0
0
0
1
0
0
0
0
0
0
0
0
0
0
0
0
0
0
0
0
0
0
0
1
0
0
0
0
0
0
0
0
0
0
0
0
0
0
0
0
0
0
0
0
0
0
0
0
0
0
0
0
0
0
0
0
0
0
0
0
0
0
0
0
0
0
0
0
0
0
0
0
0
0
0
0
0
1
0
0
0
0
0
0
0
0
0
0
0
0
0
0
0
0
0
0
0
0
0
0
0
1
0
0
0
0
0
0
0
0
0
0
0
0
0
0
0
0
0
0
0
1
0
0
0
1
0
0
0
0
0
0
0
0
0
0
0
0
0
0
0
0
0
0
0
0
0
0
0
0
0
1
0
0
0
0
0
0
0
1
0
0
0
0
0
0
0
0
0
0
0
0
0
0
0
0
0
0
0
0
0
0
0
0
0
0
1
0
0
0
0
0
0
0
1
0
0
0
0
0
0
1
0
0
0
0
0
0
0
0
0
0
0
0
0
0
0
0
0
0
0
0
0
0
0
0
0
0
0
0
0
0
0
0
0
0
0
0
0
0
1
0
0
0
0
0
1
0
0
0
0
0
0
0
1
0
0
0
0
0
0
0
0
0
0
0
0
0
1
0
0
0
0
0
0
0
0
0
0
0
0
0
0
0
0
0
0
0
0
0
0
0
0
0
0
0
0
0
0
0
0
0
0
0
0
0
0
0
0
0
0
0
0
0
0
0
0
0
0
0
0
0
1
0
0
0
0
0
0
0
0
0
0
0
0
0
0
0
0
0
0
0
1
0
0
0
0
0
0
0
0
0
1
0
0
0
0
0
0
0
0
0
0
0
0
0
0
0
0
0
0
0
0
0
0
0
0
0
0
0
0
0
1
0
1
0
0
0
0
0
0
0
0
0
0
0
0
0
0
0
0
0
0
0
0
0
0
0
0
0
0
0
1
0
0
0
1
0
0
0
0
0
0
0
0
0
0
0
0
0
0
0
0
0
0
0
0
0
0
0
0
0
0
0
0
1
0
0
0
0
0
0
0
0
0
0
0
0
0
0
0
0
0
0
0
0
0
0
0
0
0
1
0
0
0
0
0
0
0
0
0
0
0
0
0
0
0
0
0
0
0
0
0
0
0
1
0
0
0
0
0
0
1
0
0
0
0
0
0
0
0
0
0
0
1
0
0
0
0
0
0
0
0
0
0
0
0
0
0
0
0
0
0
0
0
1
0
0
0
0
0
0
0
0
0
0
0
1
0
0
0
0
0
0
0
0
0
0
0
0
0
0
0
0
0
0
0
0
0
1
0
0
0
0
0
0
0
0
0
1
1
0
1
0
1
0
0
0
0
0
0
0
0
0
0
0
1
0
0
0
0
0
1
1
0
0
0
0
0
0
1
0
0
0
0
0
1
1
1
0
0
0
0
0
0
0
0
0
0
0
0
1
1
0
0
1
0
0
0
0
0
1
0
0
0
1
0
1
0
0
0
0
0
0
0
1
0
0
0
0
0
0
0
1
0
0
1
0
0
0
0
0
0
0
0
0
0
0
0
0
0
0
1
0
0
0
0
0
0
0
0
0
0
0
0
0
0
0
0
0
0
0
0
0
0
0
0
0
0
0
0
0
0
0
0
0
0
0
0
1
0
0
0
0
0
0
1
0
0
0
1
0
0
0
0
0
0
0
0
0
0
0
1
0
0
0
0
0
0
0
0
0
0
0
0
0
0
0
0
0
0
0
0
0
0
0
0
0
0
0
0
0
0
0
0
0
0
0
0
0
0
0
0
1
1
0
0
0
0
0
0
0
0
0
0
0
0
0
1
0
0
0
0
0
0
0
0
0
0
0
0
0
0
0
0
0
0
0
0
0
0
0
0
0
0
0
0
0
0
0
0
0
0
0
0
0
0
0
0
0
0
0
0
0
0
0
0
0
0
0
0
0
0
0
0
0
0
0
0
0
0
0
0
0
0
0
0
0
0
0
0
1
1
0
0
0
0
0
0
0
0
1
0
0
0
0
0
0
0
0
0
0
0
0
0
0
0
0
0
0
0
0
0
0
0
1
0
0
0
0
0
0
0
0
0
0
0
0
0
0
0
0
1
0
0
0
0
0
0
0
0
0
0
0
0
0
0
0
0
0
0
0
0
0
0
0
0
0
0
0
0
0
0
0
0
0
0
0
0
0
0
0
0
0
0
0
0
0
0
0
0
0
0
0
0
0
0
0
0
0
0
0
0
0
0
0
0
0
0
0
0
0
0
0
0
0
0
0
0
0
0
0
0
0
0
0
0
0
0
0
0
0
0
1
1
0
0
0
0
0
1
0
0
0
0
0
0
0
0
0
0
0
0
1
0
0
0
0
0
0
0
0
0
0
0
0
0
0
0
0
0
0
0
0
0
0
0
0
0
0
0
0
0
0
0
0
0
0
0
0
0
0
0
0
0
0
0
0
0
0
0
0
0
0
0
0
0
1
0
1
0
0
0
0
0
0
0
0
0
0
0
0
0
0
0
0
0
0
1
0
0
0
0
0
0
0
0
0
0
0
0
0
0
0
0
0
0
0
0
0
0
0
0
0
0
0
0
0
0
0
0
0
0
0
0
0
0
0
0
0
0
0
0
0
0
0
0
0
0
0
0
0
0
0
0
0
0
0
0
0
0
0
0
0
0
0
0
0
0
1
0
0
0
0
0
0
0
0
0
0
1
0
0
0
0
0
0
0
0
0
0
0
0
0
0
0
0
0
0
0
0
0
0
0
0
0
0
0
0
0
0
0
0
0
0
0
0
0
1
0
0
0
0
0
0
0
0
0
0
0
0
0
0
0
0
0
0
0
0
0
0
0
0
0
0
0
0
0
0
0
0
0
0
0
0
0
0
0
0
0
0
0
0
0
0
0
0
0
0
0
0
0
0
0
0
0
0
0
0
0
0
0
0
0
0
0
0
0
0
0
0
0
0
0
0
0
0
0
0
0
1
0
0
0
0
0
0
0
0
0
0
0
0
0
0
0
0
0
0
0
0
0
0
0
0
0
0
0
0
0
0
0
0
0
0
0
0
0
0
0
0
0
0
0
0
0
0
0
0
0
0
0
0
0
0
0
0
0
0
0
0
0
0
0
0
0
0
0
0
0
0
0
0
0
0
0
0
0
0
0
0
0
0
0
0
0
0
0
0
0
0
0
0
0
0
0
0
0
0
0
0
0
0
0
0
0
0
0
0
0
0
0
0
0
0
0
0
0
0
0
0
0
0
0
1
0
0
0
0
0
0
0
0
0
0
0
0
0
0
0
0
0
0
0
0
0
0
0
0
0
0
0
0
0
0
0
0
0
0
0
0
0
0
0
0
0
0
0
0
0
0
0
0
0
0
0
0
0
0
0
0
0
0
0
0
0
0
0
0
0
0
0
0
0
0
0
0
0
0
0
0
0
0
0
0
0
1
0
0
0
0
0
0
0
1
0
0
0
0
0
0
0
0
0
0
0
0
0
0
0
0
0
0
0
0
0
0
0
0
0
0
0
0
0
0
0
0
0
0
0
0
0
1
0
0
0
0
0
0
0
0
0
0
0
0
0
0
0
0
0
0
0
0
0
1
0
0
0
0
0
0
0
0
0
0
0
0
1
1
0
0
0
0
0
0
0
0
0
0
0
0
0
0
0
1
1
0
1
0
0
0
0
0
0
0
0
0
1
0
0
0
0
0
0
1
0
0
0
0
0
0
0
0
0
0
1
0
0
0
0
1
0
1
0
0
0
0
0
0
0
1
0
0
0
1
0
0
0
1
0
1
1
0
0
1
1
0
0
0
1
0
0
0
1
0
0
0
0
0
0
0
0
0
1
0
0
0
0
0
0
1
0
0
0
0
0
0
0
0
0
0
0
0
0
0
0
0
0
0
0
0
0
0
0
0
0
0
0
1
0
0
1
0
0
0
0
0
0
0
0
0
0
0
0
0
0
0
0
0
0
1
0
0
1
0
0
0
0
0
0
0
0
0
0
0
1
0
0
1
0
0
0
0
0
0
0
0
0
0
0
1
1
0
0
0
0
0
0
0
0
0
0
0
0
1
0
0
0
0
0
0
0
0
0
0
0
0
0
0
0
0
0
1
0
0
0
0
0
0
0
0
0
0
0
0
0
0
0
0
0
1
0
0
0
0
0
0
0
0
0
0
0
0
0
0
0
0
0
0
0
0
0
0
0
0
0
0
0
0
0
0
0
0
0
0
0
0
0
0
0
0
1
0
0
0
0
0
0
0
0
0
0
0
0
0
0
0
0
0
0
0
0
0
0
0
0
0
0
0
0
0
0
0
0
0
0
0
0
0
0
0
0
0
0
0
0
0
1
0
0
0
0
0
0
0
0
0
0
0
0
0
0
0
0
0
0
0
0
0
0
0
0
0
0
0
0
0
0
0
0
0
0
0
0
0
0
0
0
0
0
0
0
0
0
0
1
0
0
0
0
0
0
0
0
0
0
1
0
0
0
0
0
0
0
0
0
0
0
0
0
0
0
1
0
0
1
0
0
0
0
0
0
0
0
0
0
0
0
0
0
0
0
0
0
0
0
0
0
0
1
0
0
0
0
0
0
0
0
0
0
0
0
0
0
0
0
0
0
0
0
0
0
0
0
0
0
0
0
0
0
0
0
0
0
0
1
0
0
0
0
0
0
0
0
0
0
0
0
0
0
0
0
0
0
0
0
0
0
0
0
0
0
0
0
0
0
0
0
0
0
0
0
0
0
0
0
0
0
0
0
0
0
0
0
0
0
0
0
0
0
0
0
0
0
0
0
0
0
0
0
0
0
0
0
0
0
0
0
0
0
0
0
1
0
0
0
0
0
0
0
0
0
0
0
0
0
0
0
0
0
0
0
0
0
0
0
0
0
0
0
0
0
0
0
0
0
0
0
0
0
0
0
1
0
0
0
0
0
0
0
0
0
0
0
0
1
1
0
0
0
0
0
0
0
0
0
0
0
0
0
0
0
0
0
0
0
0
0
0
0
0
0
0
0
0
0
0
0
0
0
0
0
0
0
0
0
0
0
0
0
0
0
0
0
0
0
0
0
0
0
0
0
0
0
0
0
0
0
0
0
0
0
0
0
0
0
0
0
0
0
0
0
0
0
0
0
0
0
0
0
0
0
0
0
0
0
0
0
0
0
0
0
0
0
0
0
0
0
1
0
1
0
0
0
0
0
0
0
1
1
1
1
0
0
0
0
0
0
0
0
0
0
0
0
0
0
0
0
0
0
0
0
0
0
0
0
0
0
0
0
1
1
0
0
0
0
0
0
0
0
0
0
0
0
0
0
0
0
0
0
1
0
0
0
0
0
0
0
1
1
0
1
1
0
0
1
0
0
0
0
0
0
0
1
0
1
0
0
0
0
0
0
0
0
0
0
0
0
0
0
0
0
0
0
0
0
0
0
0
0
0
0
0
1
1
0
0
0
1
1
0
0
0
0
1
0
0
1
0
1
0
0
0
0
0
1
0
0
0
1
0
0
0
0
0
0
0
0
0
0
0
0
0
0
0
0
0
0
0
0
0
0
0
0
0
0
0
1
0
0
0
0
0
0
1
0
0
0
0
0
0
0
0
0
0
0
0
0
0
0
0
0
0
0
0
0
0
0
0
0
0
0
0
0
1
0
1
0
0
0
0
0
0
0
1
0
0
0
0
0
0
0
0
0
0
0
1
0
0
0
0
0
0
0
0
0
1
0
0
0
0
0
0
0
1
0
0
0
0
0
0
0
1
0
0
0
0
0
0
0
0
0
0
0
0
0
0
0
0
0
0
0
1
0
1
0
0
0
0
0
1
0
0
0
0
0
0
0
0
0
0
0
0
0
0
0
0
0
0
0
0
0
0
0
0
0
1
0
1
0
0
0
0
0
0
0
0
0
1
0
0
0
0
0
1
0
0
0
0
0
0
0
0
0
0
0
0
0
0
0
1
0
0
0
0
0
0
0
0
1
0
0
0
0
0
0
0
0
0
0
0
0
0
0
0
0
0
0
0
0
0
0
0
0
0
0
0
0
0
0
1
0
0
0
0
0
0
0
0
0
0
0
0
0
0
0
0
1
0
0
0
0
0
0
0
0
1
0
0
0
0
0
0
0
0
0
1
0
0
0
0
0
1
0
0
0
0
0
0
0
0
0
0
0
0
0
0
0
0
0
0
0
1
0
0
0
0
0
0
1
0
0
0
0
0
0
0
0
1
0
0
0
0
0
0
0
0
0
0
0
0
0
0
1
0
0
1
0
0
0
1
0
0
0
0
0
0
0
0
0
0
0
0
0
0
0
0
1
0
0
0
0
0
0
0
0
0
0
1
0
1
0
0
0
0
0
0
1
0
0
0
0
0
0
0
0
0
0
0
0
0
0
0
0
0
0
0
0
0
0
0
0
0
0
0
1
1
0
0
0
0
0
0
1
0
0
0
0
0
0
0
0
0
0
0
0
0
1
0
0
0
0
0
0
0
1
0
0
0
0
0
0
0
0
0
0
0
0
0
0
0
0
0
0
0
0
0
0
0
0
0
0
0
1
0
0
0
0
0
0
0
0
0
0
1
0
0
1
0
0
0
0
0
0
0
0
0
0
0
0
0
0
0
0
0
0
0
0
0
0
0
0
0
0
0
0
0
1
0
0
0
0
0
0
0
1
0
0
0
0
0
0
0
1
0
0
0
0
1
0
0
0
0
0
0
0
0
0
0
0
1
0
1
0
0
0
1
0
				</DataArray>
				<DataArray type="Float64" Name="h" NumberOfComponents="1" Format="ascii">
1.1718776564
1.1718989247
1.1665692600
1.1707414460
1.1660628904
1.1673840517
1.1687656049
1.1732365367
1.1702496211
1.1765681217
1.1722411629
1.1679938012
1.1739482544
1.1738792768
1.1731954555
1.1773342200
1.1694694801
1.1761991503
1.1724166418
1.1726109635
1.1646701616
1.1739517824
1.1693546575
1.1642072259
1.1709479445
1.1789310992
1.1718311376
1.1605095907
1.1664976453
1.1751862109
1.1739648391
1.1685872981
1.1747605410
1.1663174126
1.1579812406
1.1634872278
1.1612499272
1.1689320043
1.1605909707
1.1635448939
1.1656609590
1.1592557183
1.1710084158
1.1659156969
1.1627149310
1.1621518874
1.1680719841
1.1564675666
1.1428992127
1.1441123301
1.1629786936
1.1628981695
1.1650572687
1.1519980053
1.1599108923
1.1706584996
1.1613815375
1.1531619382
1.1519388764
1.1528236306
1.1492238137
1.1504736028
1.1437642529
1.1620821740
1.1642851796
1.1566949821
1.1454587150
1.1450896388
1.1505006609
1.1518417038
1.1515834161
1.1591643815
1.1686195660
1.1502908637
1.1511222476
1.1587669815
1.1529886631
1.1491005501
1.1544862805
1.1594182247
1.1469225706
1.1547763262
1.1396938354
1.1465287447
1.1621107878
1.1561226912
1.1460548712
1.1480318576
1.1481321569
1.1403676429
1.1451324166
1.1580407769
1.1478590974
1.1412348950
1.1536684283
1.1555584851
1.1501995865
1.1611658882
1.1588661264
1.1458878340
1.1403728702
1.1470605081
1.1513812503
1.1546799266
1.1795928126
1.1469508592
1.1526889448
1.1419460484
1.1492873278
1.1531821623
1.1421453393
1.1411688227
1.1463158264
1.1444845751
1.1493163261
1.1420175084
1.1509992389
1.1781826331
1.1425748930
1.1475318016
1.1791053956
1.1497120003
1.1553076841
1.1805709258
1.1456969147
1.1418758318
1.1490302590
1.1813567175
1.1428397001
1.1415639567
1.1433588458
1.1521254297
1.1472799210
1.1423138773
1.1779235837
1.1433636101
1.1807762021
1.1416706686
1.1451947567
1.1769728059
1.1821324860
1.1792919196
1.1425426937
1.1744569362
1.1546481994
1.1442369923
1.1790656654
1.1399016943
1.1802193779
1.1395891453
1.1815967885
1.1416914796
1.1411032343
1.1399958638
1.1460051863
1.1408788041
1.1406364318
1.1810442977
1.1398895542
1.1838128438
1.1761194797
1.1402242313
1.1801854909
1.1826827502
1.1812781840
1.1403695371
1.1715395804
1.1784706249
1.1824321531
1.1404644154
1.1408854209
1.1835890574
1.1402903469
1.1816908496
1.1703742535
1.1400264396
1.1734237031
1.1389300731
1.1400494362
1.1830547944
1.1408417530
1.1671052929
1.1841205537
1.1538678867
1.1838583820
1.1847489206
1.1683795957
1.1398743273
1.1830571102
1.1850314078
1.1637022488
1.1400344724
1.1847942769
1.1650665837
1.1400969505
1.1393569407
1.1832061454
1.1601992536
1.1616353073
1.1389889459
1.1851276383
1.1519037923
1.1848970292
1.1395771074
1.1566333731
1.1849615993
1.1790514135
1.1822085003
1.1580913427
1.1742287446
1.1645910970
1.1845871672
1.1840287951
1.1853954408
1.1808128988
1.1610103957
1.1768349026
1.1843172147
1.1680268902
1.1848475429
1.1545538399
1.1404621589
1.1712628648
1.1425730940
1.1505342848
1.1385018617
1.1391230233
1.1459667198
1.1531301456
1.1396971121
1.1390772210
1.1414188014
1.1481518739
1.1386484631
1.1385300776
1.1440332540
1.1631795249
1.1790008884
1.1852283532
1.1739929328
1.1640258550
1.1823547724
1.1850962438
1.1731741539
1.1818237405
1.1783547666
1.1849236666
1.1667107672
1.1808824981
1.1844581656
1.1766939572
1.1675879382
1.1841603932
1.1595512416
1.1603431830
1.1855493412
1.1759487994
1.1803087927
1.1853960926
1.1415495940
1.1709355975
1.1498115674
1.1453371784
1.1419316144
1.1487000913
1.1383092215
1.1378627414
1.1538028201
1.1383561617
1.1397522649
1.1384405638
1.1700698186
1.1396640980
1.1444165428
1.1428107846
1.1524080526
1.1474534330
1.1434687818
1.1407181489
1.1511486188
1.1390213087
1.1380091869
1.1382374265
1.1378803225
1.1389979953
1.1405051302
1.1464425535
1.1789419634
1.1850640533
1.1852286881
1.1782672636
1.1625830163
1.1824744450
1.1819813716
1.1737300126
1.1634244660
1.1729005932
1.1809171943
1.1845913776
1.1855493917
1.1856870953
1.1803353244
1.1662207726
1.1596758865
1.1588783621
1.1765392638
1.1670896180
1.1757755733
1.1843058516
1.1491163575
1.1438163795
1.1446687860
1.1376813050
1.1530734320
1.1377438856
1.1408457554
1.1705564322
1.1389577917
1.1371807327
1.1696903127
1.1412914588
1.1479721003
1.1390568914
1.1376369755
1.1467620119
1.1457707829
1.1428371076
1.1375683992
1.1421714219
1.1397912912
1.1383274486
1.1371948598
1.1373269386
1.1517287461
1.1400416915
1.1504064664
1.1382982670
1.1781807126
1.1350398915
1.1734519377
1.1628454798
1.1725993077
1.1852049032
1.1619818790
1.1825731847
1.1788834378
1.1820826254
1.1853558153
1.1351455516
1.1457289757
1.1590644799
1.1383539456
1.1803453729
1.1844618458
1.1344108383
1.1763780910
1.1431396945
1.1665860503
1.1755876585
1.1365417471
1.1363067791
1.1340633867
1.1856865435
1.1657004164
1.1582366767
1.1809454514
1.1513004937
1.1473687855
1.1414519521
1.1858115878
1.1393350059
1.1350328368
1.1847259609
1.1364728955
1.1401755319
1.1406520917
1.1369378854
1.1860315665
1.1370467976
1.1484840589
1.1524096379
1.1382561918
1.1369729315
1.1701590155
1.1383787743
1.1692747038
1.1472680327
1.1431657759
1.1440177540
1.1753196599
1.1366133906
1.1511367847
1.1415265192
1.1570918001
1.1364907821
1.1393842857
1.1865103828
1.1831683715
1.1810795755
1.1644448021
1.1461119855
1.1376265489
1.1682014753
1.1390961711
1.1607109063
1.1368657524
1.1376079388
1.1497088882
1.1450859221
1.1718680116
1.1421968822
1.1483451459
1.1377983193
1.1455159778
1.1781006671
1.1348460082
1.1362664729
1.1722954154
1.1372051041
1.1461075422
1.1512890246
1.1545816746
1.1821729598
1.1356236984
1.1340496306
1.1402909903
1.1354247771
1.1853446250
1.1357413053
1.1614335505
1.1434323247
1.1336815822
1.1378713528
1.1345243962
1.1410820993
1.1397600720
1.1340217603
1.1369232532
1.1355275791
1.1514043695
1.1454615065
1.1388321442
1.1803597200
1.1356151956
1.1473641364
1.1753991240
1.1438783565
1.1429688060
1.1389141396
1.1352474652
1.1374923525
1.1354981931
1.1858105875
1.1486414704
1.1652025296
1.1545800149
1.1327990585
1.1339525812
1.1408515786
1.1331708108
1.1846131743
1.1576816217
1.1780511628
1.1362414083
1.1688628580
1.1395266130
1.1419425981
1.1466299962
1.1620054828
1.1822866563
1.1362294494
1.1720277115
1.1375726679
1.1647837952
1.1518648137
1.1425249499
1.1323360365
1.1731692418
1.1854831588
1.1861095197
1.1856134747
1.1572686418
1.1804044763
1.1361464914
1.1333118023
1.1329912252
1.1369336127
1.1846641363
1.1408881521
1.1837838321
1.1456081525
1.1491032976
1.1318077327
1.1847694030
1.1865097866
1.1784300146
1.1752404769
1.1321552967
1.1384286076
1.1862150111
1.1369567904
1.1345013517
1.1765798100
1.1810791320
1.1644437775
1.1685035095
1.1444389802
1.1859221427
1.1537082251
1.1430800831
1.1846647015
1.1609968235
1.1387416873
1.1720278332
1.1515557342
1.1854818171
1.1372169626
1.1482658035
1.1856211657
1.1729965483
1.1609955816
1.1429906074
1.1455129526
1.1344335295
1.1788635942
1.1348292448
1.1878337358
1.1407430068
1.1548488120
1.1619916278
1.1362375721
1.1780511742
1.1390218314
1.1828330726
1.1822855593
1.1649102553
1.1847678676
1.1752407133
1.1859209611
1.1548479698
1.1572668664
1.1687190545
1.1821664033
1.1859552093
1.1760145697
1.1761477268
1.1869243381
1.1647830981
1.1724553719
1.1845409286
1.1330608748
1.1792874993
1.1810933311
1.1574347563
1.1850289492
1.1539095148
1.1582415399
1.1862675459
1.1344914204
1.1335999783
1.1657893126
1.1871272416
1.1339510978
1.1804039731
1.1611225906
1.1369183498
1.1685032792
1.1419396230
1.1407597285
1.1355011461
1.1695028582
1.1430170137
1.1356367328
1.1407299074
1.1461034089
1.1857904341
1.1514861107
1.1484945561
1.1387404035
1.1656018470
1.1761576220
1.1389106889
1.1369557421
1.1890101674
1.1456757796
1.1830746787
1.1355273050
1.1377936553
1.1438747602
1.1901809315
1.1354265786
1.1664804716
1.1796133494
1.1612606813
1.1878351337
1.1486374727
1.1618165896
1.1860657379
1.1319880618
1.1695197341
1.1583456999
1.1693445615
1.1325689953
1.1789762815
1.1402881578
1.1834826486
1.1731081466
1.1330974994
1.1362620032
1.1928232356
1.1768599107
1.1843688595
1.1339338530
1.1918482605
1.1484940635
1.1812888547
1.1407898161
1.1828322396
1.1695023965
1.1619903969
1.1788633861
1.1331061097
1.1505948228
1.1852463543
1.1856201010
1.1729082770
1.1950910464
1.1325589309
1.1850277942
1.1875284194
1.1731079258
1.1928556790
1.1843641443
1.1582398229
1.1729963166
1.1657885166
1.1810928583
1.1347644516
1.1318479378
1.1369198949
1.1431067846
1.1859542039
1.1770930166
1.1691907945
1.1643803705
1.1320113949
1.1350302459
1.1574343670
1.1803475675
1.1325058626
1.1983487061
1.1751681884
1.1858228636
1.1827371748
1.2009061431
1.1681390102
1.1606269430
1.1761475960
1.1362577524
1.1781851959
1.1861225847
1.1842160733
1.1387268452
1.1335307849
1.1313937120
1.1380043002
1.1970900251
1.1717783695
1.1852171777
1.1807272912
1.1315257177
1.1312098750
1.1649096895
1.1808701088
1.1690113045
1.1903503539
1.1347194268
1.1919940709
1.1889620359
1.1307145464
1.1313604059
1.1735066965
1.1774683945
1.1339486521
1.1813230087
1.1840375201
1.1953270130
1.1323360750
1.1310157734
1.1315181357
1.1843391867
1.1868818658
1.1966013486
1.1937127164
1.1913099274
1.1328271683
1.1318923208
1.1353747341
1.1339944560
1.2014100536
1.1312116598
1.1305340319
1.1956383900
1.1318489693
1.1330775942
1.1928224750
1.1305090566
1.1792869549
1.1311397990
1.1873443992
1.1858408443
1.1306650189
1.1918475478
1.1308728459
1.1309257358
1.1871265884
1.1311893212
1.1884080821
1.1887041344
1.1318140507
1.1314300184
1.1867827458
1.1699431942
1.1690988305
1.1691176615
1.1699665296
1.1694795268
1.1679876705
1.1722315482
1.1719316106
1.1670035849
1.1673737258
1.1660744957
1.1670205678
1.1702629131
1.1731807943
1.1687538141
1.1751286574
1.1719443157
1.1694885360
1.1748104335
1.1761910959
1.1707500284
1.1665769109
1.1723931580
1.1751792952
1.1766117297
1.1678831297
1.1732490288
1.1789295632
1.1709415770
1.1765753452
1.1749891131
1.1739654157
1.1652000156
1.1763468385
1.1713015015
1.1751370916
1.1739590988
1.1748242436
1.1663149008
1.1747430128
1.1685559622
1.1736727725
1.1635381210
1.1622561806
1.1694729529
1.1773422382
1.1709794460
1.1605611673
1.1678876492
1.1766194463
1.1656403857
1.1738866147
1.1726152907
1.1652059238
1.1693883340
1.1558063015
1.1739704143
1.1618059351
1.1750055709
1.1646739347
1.1713312014
1.1721558544
1.1582785822
1.1564649598
1.1763570159
1.1627046288
1.1629760445
1.1680334746
1.1605378369
1.1642164542
1.1665243020
1.1613553389
1.1641133149
1.1718576011
1.1597750405
1.1775615104
1.1622834158
1.1585700498
1.1578500074
1.1736919555
1.1650248780
1.1558083798
1.1430264259
1.1449250384
1.1721833184
1.1618109428
1.1604850593
1.1582961561
1.1635019794
1.1642478404
1.1689670588
1.1569005736
1.1579846128
1.1437724270
1.1450965986
1.1577600517
1.1612532126
1.1620667450
1.1585776352
1.1541898384
1.1533508265
1.1659516433
1.1502936533
1.1533357816
1.1591577219
1.1685894670
1.1517827454
1.1653034523
1.1652102948
1.1597798793
1.1492890761
1.1578528207
1.1592692494
1.1529877925
1.1515834500
1.1499171410
1.1511234494
1.1641444775
1.1676434436
1.1505000194
1.1595310944
1.1775680602
1.1518398375
1.1604922302
1.1569040517
1.1571448995
1.1577738640
1.1463856974
1.1558738805
1.1442764925
1.1428902784
1.1629202639
1.1449186518
1.1621822454
1.1547678112
1.1465346190
1.1557608350
1.1430166794
1.1441040944
1.1492246375
1.1504755644
1.1676776981
1.1481116226
1.1499130558
1.1519389025
1.1540386270
1.1533362261
1.1607754611
1.1673856137
1.1541910713
1.1595338538
1.1565420137
1.1599205585
1.1505429535
1.1517838047
1.1492908216
1.1706844036
1.1542760382
1.1507379301
1.1653295627
1.1519979075
1.1533511581
1.1528230972
1.1580257968
1.1531632268
1.1652440195
1.1478596917
1.1463804354
1.1546776037
1.1588417954
1.1557651274
1.1640748888
1.1558759566
1.1470593255
1.1455924039
1.1469847194
1.1480093659
1.1567120394
1.1403793250
1.1454519750
1.1560884776
1.1611434979
1.1480604304
1.1555440167
1.1552013790
1.1442675488
1.1458884996
1.1469558132
1.1571632054
1.1397738946
1.1542820790
1.1492887610
1.1411781712
1.1481122302
1.1507365748
1.1463177360
1.1565450303
1.1587786022
1.1422897109
1.1540392272
1.1490998109
1.1674118923
1.1449365087
1.1607879524
1.1421554558
1.1531731342
1.1505429437
1.1469837789
1.1397706589
1.1524454486
1.1480619528
1.1561341727
1.1497099165
1.1484109293
1.1560909510
1.1792685670
1.1552034527
1.1480074092
1.1621291019
1.1594382106
1.1460549288
1.1396893183
1.1469230559
1.1509960156
1.1544878764
1.1455852199
1.1791032507
1.1480288572
1.1640949046
1.1449349289
1.1521190046
1.1433012575
1.1799480056
1.1418827835
1.1466452725
1.1443231730
1.1481284958
1.1536763867
1.1412244238
1.1416322651
1.1403597607
1.1451297141
1.1426423116
1.1531325415
1.1457017521
1.1490328383
1.1422785636
1.1415652220
1.1513847598
1.1410171435
1.1435324193
1.1524480268
1.1792702406
1.1484053778
1.1436263548
1.1779202297
1.1433661834
1.1472870734
1.1795944363
1.1501998473
1.1546400178
1.1444617618
1.1792894582
1.1459242934
1.1799480218
1.1416300795
1.1444790318
1.1419377195
1.1796702381
1.1531346780
1.1443198290
1.1493153271
1.1802180149
1.1432924901
1.1425433884
1.1813804171
1.1420164890
1.1466423314
1.1442382839
1.1426371922
1.1526934588
1.1793791255
1.1573340815
1.1449251826
1.1413242278
1.1410138677
1.1436192474
1.1819824040
1.1421123942
1.1410301019
1.1450966350
1.1475252548
1.1435226802
1.1416917131
1.1781859571
1.1443028570
1.1425712151
1.1768283068
1.1816007648
1.1411031215
1.1460044511
1.1796705590
1.1813820120
1.1784686178
1.1812781813
1.1459185351
1.1401295285
1.1793810169
1.1819302854
1.1394540601
1.1463885654
1.1444552655
1.1805729611
1.1428394972
1.1761103905
1.1802958344
1.1553141399
1.1433572849
1.1767775589
1.1801876530
1.1434730268
1.1402238927
1.1813577836
1.1398891705
1.1450965465
1.1807746771
1.1423135810
1.1407860695
1.1469891201
1.1410251607
1.1414445341
1.1416705191
1.1402901473
1.1756054583
1.1813891361
1.1451950209
1.1768324144
1.1449176851
1.1819787436
1.1413241245
1.1573416152
1.1443023359
1.1404641655
1.1436085644
1.1421123524
1.1408855114
1.1816923494
1.1395897476
1.1841201310
1.1488105050
1.1802969695
1.1819307852
1.1403034124
1.1403664673
1.1400012958
1.1744728775
1.1399020216
1.1790668447
1.1830554521
1.1394548912
1.1767814079
1.1463845828
1.1839254540
1.1821324789
1.1408422911
1.1434727877
1.1734086033
1.1442873973
1.1769813557
1.1401297312
1.1832079858
1.1830559251
1.1408784333
1.1406365159
1.1813861032
1.1494201608
1.1407863567
1.1782829634
1.1756089576
1.1469848827
1.1838568219
1.1414440021
1.1399955174
1.1810431701
1.1436083599
1.1683596037
1.1512718665
1.1400967882
1.1715601901
1.1832084399
1.1403014021
1.1393572917
1.1839252554
1.1400015495
1.1442874278
1.1398038737
1.1840680034
1.1403666988
1.1488122642
1.1827803257
1.1400344207
1.1428344334
1.1826823272
1.1403684534
1.1650515369
1.1391186850
1.1838135117
1.1519002179
1.1397108665
1.1835904316
1.1848955936
1.1703918641
1.1395764480
1.1494216396
1.1824337520
1.1851260139
1.1782855677
1.1616258757
1.1395744878
1.1400495499
1.1828076533
1.1840690310
1.1827810640
1.1845858844
1.1391197419
1.1398040598
1.1841847844
1.1392169812
1.1671205817
1.1428341532
1.1400264164
1.1512762097
1.1850730512
1.1851227321
1.1389309039
1.1840299181
1.1580855001
1.1637125082
1.1390757527
1.1397112636
1.1850330276
1.1395751729
1.1393967728
1.1392303112
1.1538724500
1.1847503666
1.1398747132
1.1545512806
1.1849241087
1.1783529049
1.1829543506
1.1818278896
1.1602049124
1.1851242699
1.1573742375
1.1846697192
1.1731641029
1.1833858810
1.1828059078
1.1631749869
1.1847954236
1.1851758002
1.1392157935
1.1832041558
1.1853138704
1.1803109343
1.1831084977
1.1595498838
1.1759420053
1.1841623647
1.1667028964
1.1850745402
1.1852271999
1.1841843693
1.1388509038
1.1559207119
1.1566356361
1.1393977479
1.1405171140
1.1700595357
1.1392314545
1.1428206175
1.1511467370
1.1382351573
1.1390275653
1.1387363714
1.1464437686
1.1538037860
1.1396738205
1.1389906048
1.1415615974
1.1486980697
1.1383531516
1.1385737523
1.1383089184
1.1444225855
1.1645988488
1.1782659647
1.1835365600
1.1848481936
1.1728948181
1.1625818790
1.1833828357
1.1573754047
1.1829515138
1.1847872315
1.1566543951
1.1819850942
1.1850650899
1.1846705501
1.1742400353
1.1822048183
1.1790527275
1.1849616166
1.1680380346
1.1803371327
1.1843083269
1.1851771326
1.1757712437
1.1662173388
1.1843158384
1.1610149252
1.1588796528
1.1832843654
1.1854646945
1.1768417487
1.1831049042
1.1808106925
1.1853148034
1.1414076467
1.1696850533
1.1552238651
1.1504076646
1.1457707506
1.1421788849
1.1481539271
1.1385711370
1.1385312628
1.1375662625
1.1531304197
1.1386504057
1.1380707023
1.1398032318
1.1383344280
1.1712757423
1.1388527214
1.1396883830
1.1440269580
1.1425639135
1.1530772981
1.1479714741
1.1438195001
1.1408566354
1.1505371574
1.1391176772
1.1387348049
1.1376775200
1.1559187822
1.1385043968
1.1376371777
1.1389681330
1.1378927257
1.1404511399
1.1459644147
1.1781800080
1.1836774646
1.1850956505
1.1847874445
1.1852063286
1.1790017431
1.1640294239
1.1559677574
1.1820855000
1.1566527848
1.1823510369
1.1725965054
1.1619823917
1.1739997503
1.1835331818
1.1803467083
1.1844643603
1.1854650964
1.1856059401
1.1808802454
1.1675935914
1.1582388578
1.1834392517
1.1603442698
1.1832806195
1.1755853470
1.1656994440
1.1766984477
1.1844561593
1.1497129153
1.1434642285
1.1450870025
1.1380122646
1.1524047470
1.1376332882
1.1407073171
1.1692724952
1.1389882439
1.1378894654
1.1373796257
1.1368637312
1.1545884726
1.1709426662
1.1415311593
1.1474545425
1.1391061874
1.1378807794
1.1472702044
1.1453364859
1.1431676601
1.1378654829
1.1552198923
1.1371935539
1.1419234203
1.1397407909
1.1384340388
1.1369380300
1.1369690295
1.1524146834
1.1401835412
1.1498113341
1.1382656577
1.1380678680
1.1348464726
1.1434355592
1.1553695949
1.1372084048
1.1789422944
1.1836742606
1.1347203712
1.1346472019
1.1722943773
1.1447921015
1.1614345192
1.1737335173
1.1376317953
1.1356266043
1.1343457000
1.1852276514
1.1634254905
1.1559648940
1.1821748540
1.1781003931
1.1824712067
1.1483479108
1.1502850379
1.1397631112
1.1853461434
1.1406169767
1.1356947190
1.1838125431
1.1352985344
1.1450936147
1.1576834499
1.1381609820
1.1809152956
1.1845891736
1.1347669695
1.1342028356
1.1753981445
1.1425471358
1.1652026803
1.1765417073
1.1366833525
1.1362941010
1.1344325230
1.1856057870
1.1670920742
1.1596750331
1.1835757762
1.1803605707
1.1834360157
1.1503938334
1.1482341830
1.1410538349
1.1857330260
1.1389844347
1.1350697902
1.1846152938
1.1729622597
1.1361444445
1.1540672260
1.1400328252
1.1609070599
1.1366785224
1.1408913083
1.1371946908
1.1861101617
1.1864016621
1.1816239266
1.1369393296
1.1837843708
1.1684158592
1.1491082753
1.1371903931
1.1517234506
1.1655971982
1.1382889752
1.1581662437
1.1373307300
1.1688622845
1.1384356909
1.1705598121
1.1467604467
1.1428342408
1.1756106473
1.1444418988
1.1765803294
1.1362378020
1.1518691377
1.1412855011
1.1583466076
1.1362294149
1.1395318087
1.1373765033
1.1862681970
1.1864248586
1.1840305648
1.1364929732
1.1821331982
1.1657614779
1.1466340850
1.1377373899
1.1545845708
1.1695204430
1.1390466573
1.1620063748
1.1371829893
1.1375801084
1.1491127921
1.1446676744
1.1731698594
1.1425272880
1.1475772892
1.1346644209
1.1377257711
1.1359810226
1.1482672589
1.1447897571
1.1429924197
1.1401005703
1.1788834571
1.1350838457
1.1368262246
1.1363610038
1.1350841738
1.1504356536
1.1734533922
1.1371051905
1.1455428670
1.1502832920
1.1429231056
1.1535348996
1.1446153830
1.1825708261
1.1356944870
1.1343461958
1.1400358777
1.1344933153
1.1371085563
1.1362398028
1.1357544766
1.1853545705
1.1506798696
1.1356921415
1.1628451590
1.1512982879
1.1512906912
1.1330617200
1.1336010093
1.1429194549
1.1390238993
1.1334203409
1.1376291291
1.1346458427
1.1334621044
1.1838099752
1.1553668350
1.1406142597
1.1394676953
1.1340492474
1.1457261209
1.1339536215
1.1369364092
1.1357436384
1.1357828666
1.1503208885
1.1473665508
1.1446408885
1.1383157947
1.1809441183
1.1347212807
1.1358902509
1.1358058744
1.1483811884
1.1763791565
1.1363034729
1.1434236262
1.1535334403
1.1535348728
1.1421961536
1.1835734182
1.1351438621
1.1344102290
1.1387520252
1.1351463527
1.1371818003
1.1358822435
1.1857324040
1.1479590355
1.1410844436
1.1365390223
1.1665866916
1.1535331383
1.1331067251
1.1340301706
1.1414490438
1.1402977829
1.1334018930
1.1389814460
1.1350675496
1.1330547178
1.1847239317
1.1590629208
1.1425441823
1.1383509815
1.1788461954
1.1366171917
1.1339352877
1.1325703471
1.1364901975
1.1701602722
1.1856128935
1.1393781709
1.1821327184
1.1430179706
1.1415905823
1.1461079069
1.1607097750
1.1319894056
1.1839511413
1.1864010214
1.1826807579
1.1364906205
1.1788042441
1.1731927015
1.1325072916
1.1376003973
1.1853093228
1.1380493750
1.1336262728
1.1729616693
1.1831678885
1.1618337798
1.1618326518
1.1661336838
1.1511317747
1.1421941425
1.1324946885
1.1718673481
1.1646485902
1.1854836216
1.1860308571
1.1514893624
1.1447266984
1.1860587043
1.1853283181
1.1585689192
1.1865596081
1.1370467428
1.1809929234
1.1364746324
1.1330989552
1.1329510852
1.1370412357
1.1847437892
1.1406480639
1.1840300733
1.1446642408
1.1484789404
1.1646477758
1.1320127800
1.1848666730
1.1864242035
1.1837240767
1.1366759192
1.1796138246
1.1762350886
1.1321435703
1.1383710409
1.1860580967
1.1364000961
1.1342585489
1.1753191611
1.1816235228
1.1657606543
1.1762978549
1.1697905790
1.1540646637
1.1440148330
1.1322650787
1.1756100789
1.1858480241
1.1862674987
1.1834567945
1.1549168697
1.1422110986
1.1855686387
1.1853099093
1.1623487582
1.1381402981
1.1622510933
1.1839493778
1.1731930323
1.1504347381
1.1854823899
1.1368242341
1.1514032078
1.1549144120
1.1728246171
1.1473100233
1.1853629633
1.1856314499
1.1798300958
1.1337684841
1.1718416275
1.1423071386
1.1869746923
1.1623477810
1.1698172708
1.1423051656
1.1410501513
1.1446140030
1.1828029002
1.1356974704
1.1347688287
1.1515564353
1.1503915881
1.1337674513
1.1769879081
1.1780673101
1.1346624849
1.1362910918
1.1550094955
1.1872681593
1.1475800596
1.1841224139
1.1400988294
1.1393325656
1.1536533268
1.1574987309
1.1345255877
1.1546511492
1.1885356389
1.1350411007
1.1334369020
1.1482320972
1.1360387292
1.1328457070
1.1607191680
1.1861334018
1.1360363868
1.1344818790
1.1788460764
1.1651259981
1.1385929731
1.1824592548
1.1826792973
1.1350301810
1.1663077779
1.1848650618
1.1762353697
1.1538058253
1.1858471075
1.1383138819
1.1536522740
1.1407445466
1.1585671490
1.1701544413
1.1454598684
1.1835672150
1.1860204642
1.1774688815
1.1751512486
1.1873592694
1.1661333498
1.1739083898
1.1455182327
1.1408496961
1.1473629632
1.1858414480
1.1340637180
1.1348310388
1.1334196692
1.1807279141
1.1805135638
1.1356131787
1.1586925388
1.1876020332
1.1849557766
1.1421945693
1.1328467168
1.1538064708
1.1550735757
1.1570336419
1.1873450534
1.1339518592
1.1331696588
1.1644969512
1.1878517946
1.1352453312
1.1334606204
1.1809921261
1.1624601958
1.1374902038
1.1839219001
1.1837225859
1.1369311174
1.1697906847