<VTKFile type="UnstructuredGrid" version="0.1">
	<UnstructuredGrid>
		<Piece NumberOfPoints="1862" NumberOfCells="3498">
			<CellData>
				<DataArray type="Int32" Name="type" NumberOfComponents="1" Format="ascii">
0
0
0
0
0
0
0
0
0
0
0
0
0
0
0
0
1
0
0
1
0
0
0
0
0
0
0
0
0
0
0
0
0
1
0
0
0
0
0
0
0
0
0
0
0
0
0
0
0
0
1
0
0
0
0
0
0
0
0
0
0
1
0
0
0
0
0
0
0
0
0
0
0
0
0
0
0
0
0
0
0
0
0
0
0
0
0
0
0
0
0
0
0
0
0
0
0
0
0
0
0
0
0
0
0
0
0
0
0
0
0
0
0
0
0
0
0
0
0
0
0
0
0
1
0
0
0
0
0
0
0
0
0
0
0
0
0
0
0
0
0
0
0
0
0
0
0
0
0
0
0
1
0
1
1
0
0
0
0
0
0
0
0
0
0
0
0
0
1
0
1
0
0
0
0
1
0
0
0
0
0
0
0
0
1
1
0
0
0
0
0
1
0
0
0
0
0
0
0
0
1
0
0
0
0
0
0
0
0
0
0
0
0
0
0
0
0
0
0
0
0
0
0
0
0
0
0
0
0
0
0
0
0
1
0
0
0
0
0
0
0
0
0
0
0
0
0
0
0
0
0
0
0
0
0
0
0
0
0
0
0
0
0
0
0
0
0
0
0
0
0
0
0
0
0
0
0
0
0
0
0
1
0
0
0
0
0
0
0
0
0
0
0
0
0
0
0
0
0
0
0
0
0
0
0
0
0
0
0
0
0
0
0
0
0
0
0
0
0
0
0
0
0
0
0
0
0
0
0
0
0
0
1
0
0
0
0
0
0
0
0
0
0
0
0
0
0
0
0
0
0
0
0
0
0
0
0
0
0
0
0
0
0
0
0
0
0
0
0
0
0
0
0
0
0
0
0
0
0
0
0
0
0
0
0
0
0
0
0
0
1
0
0
0
0
0
0
0
0
0
0
0
0
0
0
0
0
0
0
0
0
0
0
0
0
0
0
0
0
0
0
0
0
0
0
0
0
0
0
0
0
0
0
0
0
0
0
0
0
0
0
0
0
0
0
0
0
0
0
0
0
0
0
0
0
0
0
0
0
0
0
0
0
0
0
0
0
0
0
0
0
0
0
0
0
0
0
0
0
0
0
0
0
0
0
0
0
0
0
0
0
0
0
0
0
0
0
0
0
0
0
0
0
0
0
0
0
0
0
0
0
0
0
0
0
0
0
0
0
0
0
0
0
1
0
0
0
0
0
0
0
0
0
0
0
0
0
0
0
0
0
0
0
1
0
0
0
0
0
0
0
0
0
0
0
0
0
0
0
0
0
0
0
0
0
0
0
0
0
0
0
0
0
0
0
0
0
0
0
0
0
0
0
0
0
0
0
0
0
0
0
0
0
0
0
0
0
1
0
0
0
0
0
0
0
0
0
0
0
0
0
0
0
0
0
0
0
0
0
0
0
1
0
0
0
0
0
0
0
0
0
0
0
0
0
0
0
0
0
0
0
1
0
0
0
1
0
0
0
0
0
0
0
0
0
0
0
0
0
0
0
0
0
0
0
0
0
0
0
0
0
1
0
0
0
0
0
0
0
1
0
0
0
0
0
0
0
0
0
0
0
0
0
0
0
0
0
0
0
0
0
0
0
0
0
0
1
0
0
0
0
0
0
0
1
0
0
0
0
0
0
1
0
0
0
0
0
0
0
0
0
0
0
0
0
0
0
0
0
0
0
0
0
0
0
0
0
0
0
0
0
0
0
0
0
0
0
0
0
0
1
0
0
0
0
0
1
0
0
0
0
0
0
0
1
0
0
0
0
0
0
0
0
0
0
0
0
0
1
0
0
0
0
0
0
0
0
0
0
0
0
0
0
0
0
0
0
0
0
0
0
0
0
0
0
0
0
0
0
0
0
0
0
0
0
0
0
0
0
0
0
0
0
0
0
0
0
0
0
0
0
0
1
0
0
0
0
0
0
0
0
0
0
0
0
0
0
0
0
0
0
0
1
0
0
0
0
0
0
0
0
0
1
0
0
0
0
0
0
0
0
0
0
0
0
0
0
0
0
0
0
0
0
0
0
0
0
0
0
0
0
0
1
0
1
0
0
0
0
0
0
0
0
0
0
0
0
0
0
0
0
0
0
0
0
0
0
0
0
0
0
0
1
0
0
0
1
0
0
0
0
0
0
0
0
0
0
0
0
0
0
0
0
0
0
0
0
0
0
0
0
0
0
0
0
1
0
0
0
0
0
0
0
0
0
0
0
0
0
0
0
0
0
0
0
0
0
0
0
0
0
1
0
0
0
0
0
0
0
0
0
0
0
0
0
0
0
0
0
0
0
0
0
0
0
1
0
0
0
0
0
0
1
0
0
0
0
0
0
0
0
0
0
0
1
0
0
0
0
0
0
0
0
0
0
0
0
0
0
0
0
0
0
0
0
1
0
0
0
0
0
0
0
0
0
0
0
1
0
0
0
0
0
0
0
0
0
0
0
0
0
0
0
0
0
0
0
0
0
1
0
0
0
0
0
0
0
0
0
1
1
0
1
0
1
0
0
0
0
0
0
0
0
0
0
0
1
0
0
0
0
0
1
1
0
0
0
0
0
0
1
0
0
0
0
0
1
1
1
0
0
0
0
0
0
0
0
0
0
0
0
1
1
0
0
1
0
0
0
0
0
1
0
0
0
1
0
1
0
0
0
0
0
0
0
1
0
0
0
0
0
0
0
1
0
0
1
0
0
0
0
0
0
0
0
0
0
0
0
0
0
0
1
0
0
0
0
0
0
0
0
0
0
0
0
0
0
0
0
0
0
0
0
0
0
0
0
0
0
0
0
0
0
0
0
0
0
0
0
1
0
0
0
0
0
0
1
0
0
0
1
0
0
0
0
0
0
0
0
0
0
0
1
0
0
0
0
0
0
0
0
0
0
0
0
0
0
0
0
0
0
0
0
0
0
0
0
0
0
0
0
0
0
0
0
0
0
0
0
0
0
0
0
1
1
0
0
0
0
0
0
0
0
0
0
0
0
0
1
0
0
0
0
0
0
0
0
0
0
0
0
0
0
0
0
0
0
0
0
0
0
0
0
0
0
0
0
0
0
0
0
0
0
0
0
0
0
0
0
0
0
0
0
0
0
0
0
0
0
0
0
0
0
0
0
0
0
0
0
0
0
0
0
0
0
0
0
0
0
0
0
1
1
0
0
0
0
0
0
0
0
1
0
0
0
0
0
0
0
0
0
0
0
0
0
0
0
0
0
0
0
0
0
0
0
1
0
0
0
0
0
0
0
0
0
0
0
0
0
0
0
0
1
0
0
0
0
0
0
0
0
0
0
0
0
0
0
0
0
0
0
0
0
0
0
0
0
0
0
0
0
0
0
0
0
0
0
0
0
0
0
0
0
0
0
0
0
0
0
0
0
0
0
0
0
0
0
0
0
0
0
0
0
0
0
0
0
0
0
0
0
0
0
0
0
0
0
0
0
0
0
0
0
0
0
0
0
0
0
0
0
0
0
1
1
0
0
0
0
0
1
0
0
0
0
0
0
0
0
0
0
0
0
1
0
0
0
0
0
0
0
0
0
0
0
0
0
0
0
0
0
0
0
0
0
0
0
0
0
0
0
0
0
0
0
0
0
0
0
0
0
0
0
0
0
0
0
0
0
0
0
0
0
0
0
0
0
1
0
1
0
0
0
0
0
0
0
0
0
0
0
0
0
0
0
0
0
0
1
0
0
0
0
0
0
0
0
0
0
0
0
0
0
0
0
0
0
0
0
0
0
0
0
0
0
0
0
0
0
0
0
0
0
0
0
0
0
0
0
0
0
0
0
0
0
0
0
0
0
0
0
0
0
0
0
0
0
0
0
0
0
0
0
0
0
0
0
0
0
1
0
0
0
0
0
0
0
0
0
0
1
0
0
0
0
0
0
0
0
0
0
0
0
0
0
0
0
0
0
0
0
0
0
0
0
0
0
0
0
0
0
0
0
0
0
0
0
0
1
0
0
0
0
0
0
0
0
0
0
0
0
0
0
0
0
0
0
0
0
0
0
0
0
0
0
0
0
0
0
0
0
0
0
0
0
0
0
0
0
0
0
0
0
0
0
0
0
0
0
0
0
0
0
0
0
0
0
0
0
0
0
0
0
0
0
0
0
0
0
0
0
0
0
0
0
0
0
0
0
0
1
0
0
0
0
0
0
0
0
0
0
0
0
0
0
0
0
0
0
0
0
0
0
0
0
0
0
0
0
0
0
0
0
0
0
0
0
0
0
0
0
0
0
0
0
0
0
0
0
0
0
0
0
0
0
0
0
0
0
0
0
0
0
0
0
0
0
0
0
0
0
0
0
0
0
0
0
0
0
0
0
0
0
0
0
0
0
0
0
0
0
0
0
0
0
0
0
0
0
0
0
0
0
0
0
0
0
0
0
0
0
0
0
0
0
0
0
0
0
0
0
0
0
0
1
0
0
0
0
0
0
0
0
0
0
0
0
0
0
0
0
0
0
0
0
0
0
0
0
0
0
0
0
0
0
0
0
0
0
0
0
0
0
0
0
0
0
0
0
0
0
0
0
0
0
0
0
0
0
0
0
0
0
0
0
0
0
0
0
0
0
0
0
0
0
0
0
0
0
0
0
0
0
0
0
0
1
0
0
0
0
0
0
0
1
0
0
0
0
0
0
0
0
0
0
0
0
0
0
0
0
0
0
0
0
0
0
0
0
0
0
0
0
0
0
0
0
0
0
0
0
0
1
0
0
0
0
0
0
0
0
0
0
0
0
0
0
0
0
0
0
0
0
0
1
0
0
0
0
0
0
0
0
0
0
0
0
1
1
0
0
0
0
0
0
0
0
0
0
0
0
0
0
0
1
1
0
1
0
0
0
0
0
0
0
0
0
1
0
0
0
0
0
0
1
0
0
0
0
0
0
0
0
0
0
1
0
0
0
0
1
0
1
0
0
0
0
0
0
0
1
0
0
0
1
0
0
0
1
0
1
1
0
0
1
1
0
0
0
1
0
0
0
1
0
0
0
0
0
0
0
0
0
1
0
0
0
0
0
0
1
0
0
0
0
0
0
0
0
0
0
0
0
0
0
0
0
0
0
0
0
0
0
0
0
0
0
0
1
0
0
1
0
0
0
0
0
0
0
0
0
0
0
0
0
0
0
0
0
0
1
0
0
1
0
0
0
0
0
0
0
0
0
0
0
1
0
0
1
0
0
0
0
0
0
0
0
0
0
0
1
1
0
0
0
0
0
0
0
0
0
0
0
0
1
0
0
0
0
0
0
0
0
0
0
0
0
0
0
0
0
0
1
0
0
0
0
0
0
0
0
0
0
0
0
0
0
0
0
0
1
0
0
0
0
0
0
0
0
0
0
0
0
0
0
0
0
0
0
0
0
0
0
0
0
0
0
0
0
0
0
0
0
0
0
0
0
0
0
0
0
1
0
0
0
0
0
0
0
0
0
0
0
0
0
0
0
0
0
0
0
0
0
0
0
0
0
0
0
0
0
0
0
0
0
0
0
0
0
0
0
0
0
0
0
0
0
1
0
0
0
0
0
0
0
0
0
0
0
0
0
0
0
0
0
0
0
0
0
0
0
0
0
0
0
0
0
0
0
0
0
0
0
0
0
0
0
0
0
0
0
0
0
0
0
1
0
0
0
0
0
0
0
0
0
0
1
0
0
0
0
0
0
0
0
0
0
0
0
0
0
0
1
0
0
1
0
0
0
0
0
0
0
0
0
0
0
0
0
0
0
0
0
0
0
0
0
0
0
1
0
0
0
0
0
0
0
0
0
0
0
0
0
0
0
0
0
0
0
0
0
0
0
0
0
0
0
0
0
0
0
0
0
0
0
1
0
0
0
0
0
0
0
0
0
0
0
0
0
0
0
0
0
0
0
0
0
0
0
0
0
0
0
0
0
0
0
0
0
0
0
0
0
0
0
0
0
0
0
0
0
0
0
0
0
0
0
0
0
0
0
0
0
0
0
0
0
0
0
0
0
0
0
0
0
0
0
0
0
0
0
0
1
0
0
0
0
0
0
0
0
0
0
0
0
0
0
0
0
0
0
0
0
0
0
0
0
0
0
0
0
0
0
0
0
0
0
0
0
0
0
0
1
0
0
0
0
0
0
0
0
0
0
0
0
1
1
0
0
0
0
0
0
0
0
0
0
0
0
0
0
0
0
0
0
0
0
0
0
0
0
0
0
0
0
0
0
0
0
0
0
0
0
0
0
0
0
0
0
0
0
0
0
0
0
0
0
0
0
0
0
0
0
0
0
0
0
0
0
0
0
0
0
0
0
0
0
0
0
0
0
0
0
0
0
0
0
0
0
0
0
0
0
0
0
0
0
0
0
0
0
0
0
0
0
0
0
0
1
0
1
0
0
0
0
0
0
0
1
1
1
1
0
0
0
0
0
0
0
0
0
0
0
0
0
0
0
0
0
0
0
0
0
0
0
0
0
0
0
0
1
1
0
0
0
0
0
0
0
0
0
0
0
0
0
0
0
0
0
0
1
0
0
0
0
0
0
0
1
1
0
1
1
0
0
1
0
0
0
0
0
0
0
1
0
1
0
0
0
0
0
0
0
0
0
0
0
0
0
0
0
0
0
0
0
0
0
0
0
0
0
0
0
1
1
0
0
0
1
1
0
0
0
0
1
0
0
1
0
1
0
0
0
0
0
1
0
0
0
1
0
0
0
0
0
0
0
0
0
0
0
0
0
0
0
0
0
0
0
0
0
0
0
0
0
0
0
1
0
0
0
0
0
0
1
0
0
0
0
0
0
0
0
0
0
0
0
0
0
0
0
0
0
0
0
0
0
0
0
0
0
0
0
0
1
0
1
0
0
0
0
0
0
0
1
0
0
0
0
0
0
0
0
0
0
0
1
0
0
0
0
0
0
0
0
0
1
0
0
0
0
0
0
0
1
0
0
0
0
0
0
0
1
0
0
0
0
0
0
0
0
0
0
0
0
0
0
0
0
0
0
0
1
0
1
0
0
0
0
0
1
0
0
0
0
0
0
0
0
0
0
0
0
0
0
0
0
0
0
0
0
0
0
0
0
0
1
0
1
0
0
0
0
0
0
0
0
0
1
0
0
0
0
0
1
0
0
0
0
0
0
0
0
0
0
0
0
0
0
0
1
0
0
0
0
0
0
0
0
1
0
0
0
0
0
0
0
0
0
0
0
0
0
0
0
0
0
0
0
0
0
0
0
0
0
0
0
0
0
0
1
0
0
0
0
0
0
0
0
0
0
0
0
0
0
0
0
1
0
0
0
0
0
0
0
0
1
0
0
0
0
0
0
0
0
0
1
0
0
0
0
0
1
0
0
0
0
0
0
0
0
0
0
0
0
0
0
0
0
0
0
0
1
0
0
0
0
0
0
1
0
0
0
0
0
0
0
0
1
0
0
0
0
0
0
0
0
0
0
0
0
0
0
1
0
0
1
0
0
0
1
0
0
0
0
0
0
0
0
0
0
0
0
0
0
0
0
1
0
0
0
0
0
0
0
0
0
0
1
0
1
0
0
0
0
0
0
1
0
0
0
0
0
0
0
0
0
0
0
0
0
0
0
0
0
0
0
0
0
0
0
0
0
0
0
1
1
0
0
0
0
0
0
1
0
0
0
0
0
0
0
0
0
0
0
0
0
1
0
0
0
0
0
0
0
1
0
0
0
0
0
0
0
0
0
0
0
0
0
0
0
0
0
0
0
0
0
0
0
0
0
0
0
1
0
0
0
0
0
0
0
0
0
0
1
0
0
1
0
0
0
0
0
0
0
0
0
0
0
0
0
0
0
0
0
0
0
0
0
0
0
0
0
0
0
0
0
1
0
0
0
0
0
0
0
1
0
0
0
0
0
0
0
1
0
0
0
0
1
0
0
0
0
0
0
0
0
0
0
0
1
0
1
0
0
0
1
0
				</DataArray>
				<DataArray type="Float64" Name="h" NumberOfComponents="1" Format="ascii">
1.2136656377
1.2136828415
1.2103858777
1.2142812860
1.2094039197
1.2110116421
1.2120012041
1.2157737986
1.2134874505
1.2187202999
1.2155796789
1.2118402667
1.2145520210
1.2171032734
1.2151566041
1.2163192300
1.2135360188
1.2175596181
1.2134352919
1.2162976328
1.2091305627
1.2133771753
1.2102908026
1.2079248558
1.2148120397
1.2178048374
1.2099804510
1.2008975558
1.2085558507
1.2181322318
1.2174862553
1.2102745284
1.2132976927
1.2106807968
1.2015262117
1.2063971276
1.2056518906
1.2084764499
1.2000827108
1.2074960542
1.2082960722
1.2008358479
1.2101010651
1.2067655073
1.2060440709
1.2028628770
1.2084722108
1.1995360359
1.1759686851
1.1792895011
1.2074192684
1.2047860117
1.2066527515
1.1924064212
1.2024385951
1.2080530706
1.2028385423
1.1949180675
1.1927700476
1.1938526928
1.1882503565
1.1906350800
1.1776832299
1.2045761589
1.2045437717
1.1969174800
1.1821976423
1.1810503719
1.1905750892
1.1930222350
1.1922848701
1.2022073230
1.2064946829
1.1899647951
1.1913839772
1.1962442299
1.1944513713
1.1880408963
1.1969213233
1.1980769781
1.1833842386
1.1950298674
1.1658234384
1.1839555721
1.1996266747
1.1947598810
1.1812319529
1.1863132945
1.1863963575
1.1691543449
1.1796199603
1.1962370856
1.1856173459
1.1725595703
1.1930592383
1.1947769468
1.1889820395
1.1993099008
1.1980824360
1.1810748123
1.1682486419
1.1834392213
1.1909244355
1.1974295223
1.2210427637
1.1846965832
1.1911328906
1.1732953790
1.1883960926
1.1929480602
1.1750496126
1.1716895192
1.1824230798
1.1786710817
1.1883609079
1.1698758812
1.1907036218
1.2205484631
1.1731005295
1.1855361082
1.2209467037
1.1886227062
1.1928159056
1.2237043857
1.1815656145
1.1723875626
1.1880399212
1.2241512006
1.1717915502
1.1690223238
1.1743404177
1.1910186976
1.1850195685
1.1690882182
1.2206071558
1.1748911686
1.2193576745
1.1675294766
1.1785595544
1.2141992733
1.2245460705
1.2223698087
1.1717235028
1.2111996132
1.1928405058
1.1767316557
1.2167781306
1.1620250849
1.2228467983
1.1596018856
1.2202368286
1.1667253928
1.1653333971
1.1597035804
1.1808294219
1.1656999353
1.1617625329
1.2224623194
1.1602161574
1.2267819663
1.2124936378
1.1626254482
1.2176681465
1.2248365940
1.2233623728
1.1651894579
1.2078841598
1.2154796157
1.2256844958
1.1640901495
1.1629642915
1.2271467593
1.1604998045
1.2228978309
1.2059119514
1.1575789810
1.2092998599
1.1602821178
1.1580725369
1.2250254513
1.1663016118
1.2024615486
1.2268017884
1.1909396435
1.2271528083
1.2287896470
1.2044731308
1.1585984394
1.2264893512
1.2297327836
1.1990140739
1.1582636205
1.2282401563
1.2010522509
1.1578803603
1.1620092015
1.2238206175
1.1956117793
1.1976226407
1.1576751002
1.2297829128
1.1893244122
1.2291987024
1.1581174799
1.1922552982
1.2261196463
1.2151619500
1.2201569409
1.1941918006
1.2090313112
1.1987452835
1.2283809848
1.2249161828
1.2271229828
1.2177833712
1.1952973368
1.2122194420
1.2244315980
1.2022085773
1.2272822895
1.1908020736
1.1710326147
1.2056556997
1.1772627136
1.1875330597
1.1581184425
1.1646334486
1.1831040099
1.1889637841
1.1677628396
1.1581359594
1.1742473706
1.1856293508
1.1574752719
1.1596235050
1.1801561706
1.1966668383
1.2131173720
1.2281765079
1.2066604929
1.1961886098
1.2184798445
1.2247015153
1.2070334371
1.2187463960
1.2134736173
1.2254239819
1.2001202417
1.2159639021
1.2228796100
1.2099894368
1.1996877125
1.2234507694
1.1932873340
1.1927699843
1.2257622137
1.2103424868
1.2162647694
1.2271240511
1.1749704753
1.2032002283
1.1857341492
1.1819941195
1.1765112881
1.1857951400
1.1601859019
1.1580567888
1.1886485608
1.1575766245
1.1703925326
1.1642734361
1.2036008291
1.1685831261
1.1808089838
1.1779319729
1.1868822549
1.1841289965
1.1793751203
1.1735121325
1.1874498667
1.1654387057
1.1574018779
1.1584733546
1.1595056215
1.1672571225
1.1718157803
1.1835634618
1.2107743499
1.2238771967
1.2230143731
1.2112459700
1.1940883457
1.2165025987
1.2169881741
1.2040466384
1.1934387312
1.2045537840
1.2137971435
1.2210781645
1.2257630931
1.2241001864
1.2142671220
1.1975293236
1.1901077121
1.1907840058
1.2074983337
1.1969303558
1.2079772858
1.2217767817
1.1838700709
1.1798725921
1.1807295548
1.1574791691
1.1863978186
1.1638863586
1.1741993245
1.2004956419
1.1680258605
1.1579497629
1.2010436655
1.1757244706
1.1841288284
1.1697812310
1.1600133947
1.1825523524
1.1822576892
1.1784123046
1.1583662065
1.1771357369
1.1711365142
1.1650182789
1.1593334043
1.1573113989
1.1847528427
1.1728115326
1.1854798938
1.1667524926
1.2087590921
1.1572371505
1.2012024104
1.1906116680
1.2018429626
1.2220787298
1.1913782633
1.2141949046
1.2081536643
1.2148530739
1.2210582815
1.1606622418
1.1776880579
1.1874477977
1.1708874460
1.2119417199
1.2198866220
1.1579333576
1.2047530618
1.1755396644
1.1940260700
1.2053657246
1.1669733283
1.1656372045
1.1561544350
1.2241005787
1.1947575896
1.1882153848
1.2113233023
1.1791357322
1.1776867093
1.1751227178
1.2221556347
1.1721915523
1.1623500763
1.2190189111
1.1577889632
1.1734515838
1.1748569695
1.1597846284
1.2100669293
1.1634697159
1.1820076458
1.1841537623
1.1674744102
1.1573583598
1.1975923666
1.1691618449
1.1982758152
1.1823961415
1.1787599307
1.1793830268
1.1916914757
1.1571815587
1.1826916338
1.1762562735
1.1806537092
1.1591053372
1.1720857324
1.2073602278
1.1998809905
1.1971342135
1.1841922256
1.1809364448
1.1645781279
1.1864703837
1.1704810553
1.1822530418
1.1582092310
1.1662345715
1.1834702343
1.1808327015
1.1890098480
1.1773322266
1.1784665595
1.1691057630
1.1766754468
1.2060132607
1.1587068871
1.1636141998
1.1989462014
1.1683088775
1.1790596674
1.1785090927
1.1799161983
1.2123880862
1.1630183009
1.1568255182
1.1742480008
1.1577010578
1.2200173677
1.1648761116
1.1886800870
1.1766099713
1.1562477765
1.1699588658
1.1600532143
1.1740610143
1.1731923521
1.1607491933
1.1663183641
1.1591484829
1.1783793687
1.1760695901
1.1705772141
1.2093227160
1.1652271503
1.1767758737
1.2025254469
1.1779204435
1.1743300505
1.1718018054
1.1640638016
1.1690739811
1.1569443708
1.2221556243
1.1798137724
1.1919182138
1.1799173595
1.1548847034
1.1593451232
1.1732061769
1.1565690121
1.2177122184
1.1857434268
1.2030439489
1.1571875456
1.1953747549
1.1726559082
1.1763141996
1.1806692045
1.1825769691
1.2096055647
1.1594989173
1.1959748222
1.1669105935
1.1891953477
1.1820742226
1.1775503299
1.1546465613
1.1889991798
1.2176519496
1.2083485744
1.2055103006
1.1835778568
1.2064267426
1.1579921124
1.1590487867
1.1576628811
1.1641129241
1.2026672746
1.1752818833
1.1967042467
1.1758029949
1.1815312955
1.1531776493
1.2152105751
1.2073637113
1.1944161313
1.1995290341
1.1549593272
1.1698130887
1.2015208806
1.1671221667
1.1623939217
1.1914665207
1.1971376439
1.1841942006
1.1924907574
1.1793584535
1.2199197443
1.1813457230
1.1740944493
1.2026638728
1.1861989180
1.1700482783
1.1959787648
1.1785368328
1.2176517977
1.1682776178
1.1772166661
1.2162687160
1.1952161088
1.1862009993
1.1747753945
1.1758239539
1.1563217369
1.2022215634
1.1632175371
1.1976749255
1.1725987169
1.1797151376
1.1855250761
1.1666132574
1.2030472341
1.1712992778
1.2086338181
1.2096065839
1.1843865772
1.2152102885
1.1995329317
1.2199198203
1.1797159922
1.1835792211
1.1863192514
1.1932650473
1.2184600749
1.1902450872
1.1987460912
1.2032057031
1.1891981898
1.1883191586
1.1942897419
1.1555534330
1.1919333840
1.2055430858
1.1810644079
1.2139765919
1.1796591501
1.1829848413
1.1953408015
1.1615797842
1.1575068346
1.1884768094
1.1971570062
1.1593416899
1.2064289678
1.1826325584
1.1663038439
1.1924942764
1.1763114441
1.1720477342
1.1569424771
1.1917494537
1.1741400944
1.1650239155
1.1722302273
1.1790565779
1.2133611996
1.1803467933
1.1772887303
1.1700483417
1.1863391434
1.1958007849
1.1717939061
1.1671221928
1.1926546428
1.1758460829
1.2054493977
1.1591451412
1.1690930852
1.1779174958
1.1910835502
1.1577000869
1.1856300088
1.1939201285
1.1829649861
1.1935691014
1.1798115471
1.1837658227
1.2157089188
1.1538128216
1.1866188432
1.1810177577
1.1892840870
1.1558730429
1.1991395325
1.1742437802
1.1940049328
1.1896953406
1.1584579875
1.1636010614
1.1782188554
1.1917875824
1.2082982982
1.1609260979
1.1871795932
1.1772890558
1.2023828600
1.1719803277
1.2086358004
1.1917526786
1.1855274730
1.2022248548
1.1551793220
1.1782717734
1.2109298579
1.2162693653
1.1924811314
1.1828190703
1.1568565563
1.2139772886
1.1961497481
1.1896960785
1.1898431125
1.1961787560
1.1829865889
1.1952195451
1.1884796922
1.2055458615
1.1624892166
1.1545688888
1.1667962690
1.1740929068
1.2184608811
1.1924543673
1.1873493974
1.1851218975
1.1535445045
1.1635858193
1.1810649294
1.1933259867
1.1563497893
1.1836932047
1.1938233869
1.2118490670
1.2032568564
1.1774907612
1.1877788778
1.1828436001
1.1987495777
1.1654770052
1.1969946676
1.2144273822
1.2062444176
1.1695245727
1.1595561283
1.1528583021
1.1683552086
1.1731392817
1.1907201151
1.2091190601
1.2001640207
1.1527952850
1.1516312658
1.1843878044
1.1947731018
1.1869076404
1.1941806950
1.1622529080
1.1937129281
1.1960569141
1.1499345558
1.1525670884
1.1886589684
1.1908957717
1.1603464567
1.1930110044
1.1952872979
1.1903384306
1.1560319328
1.1511421694
1.1534474457
1.1934227601
1.1929062850
1.1848571838
1.1870697775
1.1921472830
1.1573316081
1.1543977875
1.1639106389
1.1605774585
1.1749529324
1.1519895079
1.1496452299
1.1796010363
1.1545692546
1.1583021225
1.1782237909
1.1490581317
1.1919360688
1.1520596469
1.1939456674
1.1935547470
1.1493953086
1.1871833967
1.1505811412
1.1507174109
1.1971609187
1.1518604160
1.1947032571
1.1928070020
1.1540521894
1.1522373633
1.2051034063
1.2120928909
1.2118026214
1.2118181096
1.2121109944
1.2131101328
1.2118357158
1.2155721624
1.2148850748
1.2100525541
1.2110032522
1.2094137077
1.2100680969
1.2134978615
1.2151446860
1.2119916189
1.2176489636
1.2148960733
1.2131171556
1.2162725515
1.2175529373
1.2142884723
1.2103918464
1.2134178574
1.2181268722
1.2165468610
1.2120964187
1.2157836961
1.2178038374
1.2148070569
1.2187263962
1.2152099278
1.2145663144
1.2093647420
1.2145581657
1.2118411288
1.2176560801
1.2174818371
1.2162839798
1.2106796369
1.2132823176
1.2102492336
1.2114128104
1.2074905328
1.2011398828
1.2135383311
1.2163266111
1.2100800620
1.2000557100
1.2120994461
1.2165538836
1.2082770501
1.2171092579
1.2163010340
1.2093693493
1.2103163260
1.1983131532
1.2133911759
1.2059509416
1.2152226960
1.2091330013
1.2118647458
1.2119312838
1.1988692275
1.1995354280
1.2145676890
1.2060351561
1.2074181502
1.2084422069
1.2009211325
1.2079326886
1.2085792311
1.2028140598
1.2029200852
1.2100032940
1.2034773453
1.2185336522
1.2011617583
1.2006916205
1.2016868965
1.2114301147
1.2066239140
1.1983126170
1.1767413024
1.1804484560
1.2119509368
1.2059548564
1.2040096691
1.1988854719
1.2064104051
1.2045131030
1.2085021089
1.1995234469
1.2015278443
1.1777042066
1.1810693860
1.1989452545
1.2056538125
1.2045621672
1.2006972967
1.1961059050
1.1947639153
1.2067943047
1.1899729067
1.1943027394
1.2022017514
1.2064681134
1.1928171434
1.2029720666
1.2046084628
1.2034808575
1.1883285890
1.2016879124
1.2008487328
1.1944541986
1.1922892745
1.1895206959
1.1913901292
1.2029455334
1.2065310848
1.1905786975
1.2036693726
1.2185394829
1.1930236649
1.2040157008
1.1995246565
1.1967975303
1.1989579556
1.1836258185
1.1979912845
1.1798798961
1.1759462742
1.2048066506
1.1804301599
1.2028893971
1.1950243031
1.1839706700
1.1968442637
1.1767161989
1.1792673458
1.1882468356
1.1906336833
1.2065565010
1.1859410975
1.1895099389
1.1927658406
1.1956362373
1.1942991604
1.1976932060
1.2045757441
1.1961039021
1.2036703905
1.1984255559
1.2024468804
1.1906272665
1.1928145245
1.1883264138
1.2080756566
1.1948941173
1.1908938159
1.2029973517
1.1924022635
1.1947604462
1.1938478671
1.1962223201
1.1949160397
1.2046345772
1.1856234192
1.1836118920
1.1974297594
1.1980594549
1.1968445369
1.2010969669
1.1979903790
1.1834421900
1.1824705824
1.1836830908
1.1863883343
1.1969336101
1.1682581732
1.1821802318
1.1994314991
1.1992910625
1.1857831874
1.1947627573
1.1966146226
1.1798558701
1.1810805322
1.1847079950
1.1968152721
1.1649490122
1.1948970346
1.1884032947
1.1717106654
1.1859370698
1.1908872866
1.1824320522
1.1984252229
1.1962592111
1.1758413642
1.1956330714
1.1880347662
1.2045994428
1.1789327221
1.1977076990
1.1750774707
1.1929405746
1.1906226834
1.1836764323
1.1649499036
1.1927199226
1.1857809169
1.1947723725
1.1886222458
1.1869466238
1.1994317284
1.2202838907
1.1966126796
1.1863813148
1.1996461050
1.1980961101
1.1812274150
1.1658229487
1.1833802515
1.1907030393
1.1969199232
1.1824527954
1.2209448089
1.1863055535
1.2011170840
1.1789255053
1.1910122411
1.1781796649
1.2199741081
1.1724028300
1.1834087463
1.1778917320
1.1863851796
1.1930663830
1.1725329232
1.1701221830
1.1691408469
1.1796105750
1.1740499772
1.1951686058
1.1815810174
1.1880479356
1.1758090213
1.1690242432
1.1909258440
1.1687057326
1.1788629284
1.1927190686
1.2202854478
1.1869324702
1.1769008183
1.2206049970
1.1748987020
1.1850366846
1.2210443005
1.1889813453
1.1928306478
1.1806836394
1.2223686471
1.1822979803
1.2199741060
1.1701187862
1.1786553861
1.1732769359
1.2188256930
1.1951679549
1.1778805465
1.1883553279
1.2228463606
1.1781536840
1.1717263337
1.2245082400
1.1698743686
1.1833980357
1.1767372180
1.1740375736
1.1911391361
1.2222081815
1.1943279330
1.1815008714
1.1650530486
1.1687010595
1.1768817651
1.2215787819
1.1692612564
1.1696764445
1.1786935826
1.1855204437
1.1788349415
1.1667283257
1.2205506960
1.1764683013
1.1730910624
1.2197790134
1.2202394824
1.1653335232
1.1808326191
1.2188270036
1.2245084587
1.2154777840
1.2233628531
1.1822814875
1.1615630387
1.2222089391
1.2246069847
1.1602579992
1.1838066277
1.1806653781
1.2237051099
1.1717891793
1.2124850889
1.2224902794
1.1928265486
1.1743348378
1.2199996804
1.2176691550
1.1738911385
1.1626219644
1.2241511065
1.1602145643
1.1786894395
1.2193586667
1.1690854294
1.1640701226
1.1846110616
1.1696691272
1.1675259231
1.1675290784
1.1605004887
1.2189651694
1.2217057069
1.1785558073
1.2197819512
1.1814826345
1.2215757243
1.1650514591
1.1943388293
1.1764638701
1.1640876261
1.1736900598
1.1692596235
1.1629663755
1.2228998808
1.1596040336
1.2268023916
1.1870291628
1.2224909857
1.2246063053
1.1661333853
1.1622795098
1.1595888525
1.2112141529
1.1620289407
1.2167790976
1.2250268979
1.1602620011
1.2200022135
1.1837977791
1.2260708922
1.2245452052
1.1662994001
1.1738878220
1.2092856043
1.1759096603
1.2142071220
1.1615648529
1.2260303279
1.2264896420
1.1657018577
1.1617618594
1.2217018116
1.1873639989
1.1640714487
1.2214418284
1.2189677531
1.1846037643
1.2271527386
1.1675259503
1.1597015969
1.2224604889
1.1736864221
1.2044521159
1.1892550907
1.1578818096
1.2079037216
1.2260296674
1.1661349052
1.1620032587
1.2260696981
1.1595890966
1.1759059101
1.1629347226
1.2275024115
1.1622805781
1.1870315750
1.2255692029
1.1582653252
1.1711141676
1.2248350952
1.1651917127
1.2010338677
1.1596696705
1.2267813854
1.1893166374
1.1575592182
1.2271466968
1.2291987881
1.2059295362
1.1581178109
1.1873682522
1.2256846077
1.2297827657
1.2214432667
1.1976090366
1.1577857912
1.1580711587
1.2242205964
1.2275020510
1.2255687369
1.2283810547
1.1596744269
1.1629403159
1.2257375886
1.1627875532
1.2024788203
1.1711105172
1.1575773224
1.1892621366
1.2289845608
1.2292582637
1.1602891182
1.2249178435
1.1941822643
1.1990281543
1.1581347941
1.1575578572
1.2297330452
1.1577848795
1.1585557458
1.1575434641
1.1909485858
1.2287894375
1.1585979059
1.1907960395
1.2254244750
1.2134716199
1.2227565540
1.2187508523
1.1956215787
1.2292586337
1.1919189202
1.2276677015
1.2070211143
1.2224176780
1.2242180024
1.1966574062
1.2282401487
1.2284929250
1.1627946833
1.2238184210
1.2275336582
1.2162669699
1.2211843016
1.1932819041
1.2103346905
1.2234530914
1.2001074728
1.2289851598
1.2281755867
1.2257366382
1.1585306667
1.1900156392
1.1922612232
1.1585566049
1.1718512908
1.2035867584
1.1575427634
1.1779599576
1.1874450283
1.1584680996
1.1654444831
1.1618514806
1.1835635935
1.1886480375
1.1686055705
1.1576751155
1.1750079118
1.1857890097
1.1575752974
1.1625656887
1.1601770077
1.1808223729
1.1987582947
1.2112437020
1.2207827623
1.2272822877
1.2045438957
1.1940832028
1.2224143113
1.1919242437
1.2227534980
1.2266949282
1.1894973788
1.2169927727
1.2238781267
1.2276675729
1.2090438715
1.2201533235
1.2151630286
1.2261194636
1.2022243947
1.2142691039
1.2217797545
1.2284936331
1.2079703911
1.1975208364
1.2244299214
1.1953064973
1.1907826144
1.2194770795
1.2263124869
1.2122265878
1.2211803834
1.2177813903
1.2275345986
1.1742128905
1.2010333078
1.1876671958
1.1854806939
1.1822549379
1.1771568028
1.1856345482
1.1625717037
1.1596309703
1.1583604567
1.1889670779
1.1574748767
1.1616289558
1.1711751181
1.1650314134
1.2056715488
1.1585336986
1.1677469793
1.1801394763
1.1772340221
1.1864022615
1.1841256358
1.1798785004
1.1742341227
1.1875397661
1.1646317021
1.1618583063
1.1574772544
1.1900170575
1.1581216792
1.1600057135
1.1680554592
1.1622859963
1.1710032700
1.1830997300
1.2087564343
1.2189098455
1.2247009870
1.2266946681
1.2220799694
1.2131184262
1.1961969873
1.1870065921
1.2148563503
1.1894980875
1.2184752996
1.2018357241
1.1913758437
1.2066705493
1.2207786224
1.2119424668
1.2198896061
1.2263134496
1.2247935844
1.2159611484
1.1996987654
1.1882156850
1.2174955248
1.1927746421
1.2194723981
1.2053600196
1.1947525241
1.2099954926
1.2228771889
1.1834750436
1.1793636049
1.1808320091
1.1574023348
1.1868798007
1.1645960910
1.1734758129
1.1982688998
1.1672336454
1.1622874817
1.1613581010
1.1582050292
1.1853215084
1.2032120637
1.1762685565
1.1841336045
1.1705141204
1.1595133529
1.1823978986
1.1819944501
1.1787620793
1.1580613070
1.1876647773
1.1619633825
1.1764852756
1.1703570227
1.1642660124
1.1597806806
1.1573572037
1.1841589128
1.1734769370
1.1857361725
1.1675044029
1.1616332893
1.1587108650
1.1766120657
1.1846006806
1.1683158061
1.2107757949
1.2189057270
1.1573187843
1.1596506985
1.1989410796
1.1767475577
1.1886781443
1.2040540779
1.1695493484
1.1630263664
1.1568063419
1.2230135300
1.1934434460
1.1870053324
1.2123891811
1.2060102527
1.2164985635
1.1784670591
1.1785167574
1.1731957085
1.2200183912
1.1739201459
1.1643431718
1.2167483979
1.1602058274
1.1779218917
1.1857427297
1.1704498474
1.2137951768
1.2210754839
1.1566055073
1.1581700254
1.2025208606
1.1755276063
1.1919148356
1.2075033622
1.1674756126
1.1650503497
1.1563251729
1.2247943816
1.1969374270
1.1901093046
1.2151839471
1.2093218509
1.2174915238
1.1794314063
1.1776026904
1.1750243647
1.2229775245
1.1719067424
1.1618413034
1.2177141730
1.1903124978
1.1579905528
1.1831470446
1.1727806795
1.1822884705
1.1610406155
1.1752884768
1.1593385001
1.2083455236
1.2063683128
1.1992144334
1.1641303644
1.1967007631
1.1860383617
1.1815360277
1.1619591939
1.1847471919
1.1849628373
1.1667251790
1.1810143865
1.1573120638
1.1953701515
1.1698354755
1.2005037454
1.1825526629
1.1784063016
1.1904605427
1.1793607789
1.1914635671
1.1571879385
1.1820767825
1.1757057564
1.1810165539
1.1594992365
1.1726709154
1.1613576791
1.2110975918
1.2090480053
1.1985502827
1.1615958599
1.1963226218
1.1844468114
1.1806732617
1.1638732181
1.1853190006
1.1866164885
1.1697465103
1.1825753633
1.1579534808
1.1669341847
1.1838666967
1.1807302852
1.1889965141
1.1775525093
1.1787789520
1.1626804842
1.1685000478
1.1606637035
1.1772160444
1.1767472021
1.1747752853
1.1721564988
1.2081558381
1.1584202672
1.1677432725
1.1630051497
1.1584236977
1.1780795129
1.2012077147
1.1677632723
1.1793569869
1.1785176140
1.1766966942
1.1800886435
1.1754352025
1.2141927396
1.1624593534
1.1568033041
1.1739113520
1.1615831044
1.1677722003
1.1666157060
1.1575580727
1.2210574547
1.1808608445
1.1643368197
1.1906146188
1.1791362626
1.1785083567
1.1555565420
1.1575100754
1.1766938007
1.1713002695
1.1562169219
1.1695452743
1.1596456445
1.1581815908
1.2167455621
1.1846006464
1.1739182644
1.1729090791
1.1568284109
1.1776871679
1.1602730429
1.1656759975
1.1648806746
1.1588086954
1.1781110064
1.1776867405
1.1759145307
1.1700851563
1.2113230636
1.1573160632
1.1657820792
1.1611683398
1.1771805926
1.2047572743
1.1656285655
1.1780130392
1.1794433118
1.1794421518
1.1739268957
1.2151818220
1.1606556716
1.1579295015
1.1713007946
1.1635444908
1.1686298940
1.1569885870
1.2229780959
1.1802632209
1.1740620878
1.1669679139
1.1940305784
1.1800898655
1.1551827520
1.1589728590
1.1751205739
1.1729429933
1.1555811883
1.1719035272
1.1618353126
1.1567390385
1.2190167466
1.1874489336
1.1755259430
1.1708826429
1.2052793001
1.1571813908
1.1609268479
1.1558749720
1.1615880701
1.1975977309
1.2055135492
1.1720647868
1.1963260426
1.1741397281
1.1761845666
1.1809327813
1.1822546396
1.1538148087
1.2142650460
1.2063716632
1.2115681170
1.1591065893
1.1926331559
1.1982060762
1.1563511469
1.1662100148
1.2012221711
1.1688571501
1.1598859426
1.1903154696
1.1998844179
1.1827869695
1.1827888496
1.1911312761
1.1826870952
1.1773284753
1.1547373868
1.1890126256
1.1840368246
1.2188211996
1.2100696064
1.1803474589
1.1751949950
1.2037675395
1.1989265683
1.1849935860
1.2044107699
1.1676187669
1.2085600808
1.1577903340
1.1584590460
1.1572933145
1.1634544271
1.2048754381
1.1748457995
1.1985538788
1.1752368671
1.1820022734
1.1840385109
1.1535469479
1.2166639949
1.2090511240
1.2125370078
1.1610359459
1.1939169110
1.2017980323
1.1547616662
1.1691349151
1.2037710770
1.1662757740
1.1617887197
1.1916946058
1.1992179057
1.1844488020
1.1932589502
1.1946100613
1.1831470351
1.1793811549
1.1540747584
1.1904632988
1.2208712209
1.2111003614
1.2020990330
1.1824870229
1.1733473692
1.2075211714
1.2012185674
1.1878921175
1.1693804751
1.1828873568
1.2142642586
1.1982100883
1.1780802085
1.2188208856
1.1677419131
1.1783801513
1.1824879289
1.1889842601
1.1770365011
1.1931954866
1.2149402336
1.1922983159
1.1573145351
1.1931392875
1.1745872683
1.2022502089
1.1878946447
1.1866042485
1.1745871240
1.1750207512
1.1754357155
1.1941752165
1.1624681988
1.1566024980
1.1785362768
1.1794318709
1.1573109142
1.1906731927
1.1999711185
1.1626780286
1.1650406299
1.1799935806
1.1999598633
1.1787796863
1.2114466775
1.1721563151
1.1721895814
1.1793128235
1.1811996561
1.1600573238
1.1808782462
1.1924896330
1.1572344799
1.1585350206
1.1776029183
1.1661122867
1.1554824786
1.1841830571
1.1973872280
1.1661090583
1.1611004673
1.2052821679
1.1848522456
1.1709414708
1.2065318798
1.2115682636
1.1623441649
1.1851852033
1.2166631100
1.2018017453
1.1794779666
1.2208717321
1.1700843862
1.1793138034
1.1725986314
1.1849951687
1.1871747901
1.1760700645
1.1931680191
1.2173563991
1.1908936393
1.1965427854
1.2006991964
1.1911346095
1.1891337260
1.1766755791
1.1732059074
1.1767765137
1.1935513759
1.1561508537
1.1632192777
1.1562135482
1.1922785004
1.2033261716
1.1652251945
1.1814700013
1.1985428244
1.2123516446
1.1739271090
1.1554853185
1.1794773111
1.1800852501
1.1819391939
1.1939418801
1.1602703090
1.1565660744
1.1868440447
1.1954763120
1.1640607369
1.1581786721
1.2085616354
1.1833418905
1.1690722987
1.2095476203
1.2125370900
1.1656587119
1.1946139194