<VTKFile type="UnstructuredGrid" version="0.1">
	<UnstructuredGrid>
		<Piece NumberOfPoints="1862" NumberOfCells="3498">
			<CellData>
				<DataArray type="Int32" Name="type" NumberOfComponents="1" Format="ascii">
0
0
0
0
0
0
0
0
0
0
0
0
0
0
0
0
1
0
0
1
0
0
0
0
0
0
0
0
0
0
0
0
0
1
0
0
0
0
0
0
0
0
0
0
0
0
0
0
0
0
1
0
0
0
0
0
0
0
0
0
0
1
0
0
0
0
0
0
0
0
0
0
0
0
0
0
0
0
0
0
0
0
0
0
0
0
0
0
0
0
0
0
0
0
0
0
0
0
0
0
0
0
0
0
0
0
0
0
0
0
0
0
0
0
0
0
0
0
0
0
0
0
0
1
0
0
0
0
0
0
0
0
0
0
0
0
0
0
0
0
0
0
0
0
0
0
0
0
0
0
0
1
0
1
1
0
0
0
0
0
0
0
0
0
0
0
0
0
1
0
1
0
0
0
0
1
0
0
0
0
0
0
0
0
1
1
0
0
0
0
0
1
0
0
0
0
0
0
0
0
1
0
0
0
0
0
0
0
0
0
0
0
0
0
0
0
0
0
0
0
0
0
0
0
0
0
0
0
0
0
0
0
0
1
0
0
0
0
0
0
0
0
0
0
0
0
0
0
0
0
0
0
0
0
0
0
0
0
0
0
0
0
0
0
0
0
0
0
0
0
0
0
0
0
0
0
0
0
0
0
0
1
0
0
0
0
0
0
0
0
0
0
0
0
0
0
0
0
0
0
0
0
0
0
0
0
0
0
0
0
0
0
0
0
0
0
0
0
0
0
0
0
0
0
0
0
0
0
0
0
0
0
1
0
0
0
0
0
0
0
0
0
0
0
0
0
0
0
0
0
0
0
0
0
0
0
0
0
0
0
0
0
0
0
0
0
0
0
0
0
0
0
0
0
0
0
0
0
0
0
0
0
0
0
0
0
0
0
0
0
1
0
0
0
0
0
0
0
0
0
0
0
0
0
0
0
0
0
0
0
0
0
0
0
0
0
0
0
0
0
0
0
0
0
0
0
0
0
0
0
0
0
0
0
0
0
0
0
0
0
0
0
0
0
0
0
0
0
0
0
0
0
0
0
0
0
0
0
0
0
0
0
0
0
0
0
0
0
0
0
0
0
0
0
0
0
0
0
0
0
0
0
0
0
0
0
0
0
0
0
0
0
0
0
0
0
0
0
0
0
0
0
0
0
0
0
0
0
0
0
0
0
0
0
0
0
0
0
0
0
0
0
0
1
0
0
0
0
0
0
0
0
0
0
0
0
0
0
0
0
0
0
0
1
0
0
0
0
0
0
0
0
0
0
0
0
0
0
0
0
0
0
0
0
0
0
0
0
0
0
0
0
0
0
0
0
0
0
0
0
0
0
0
0
0
0
0
0
0
0
0
0
0
0
0
0
0
1
0
0
0
0
0
0
0
0
0
0
0
0
0
0
0
0
0
0
0
0
0
0
0
1
0
0
0
0
0
0
0
0
0
0
0
0
0
0
0
0
0
0
0
1
0
0
0
1
0
0
0
0
0
0
0
0
0
0
0
0
0
0
0
0
0
0
0
0
0
0
0
0
0
1
0
0
0
0
0
0
0
1
0
0
0
0
0
0
0
0
0
0
0
0
0
0
0
0
0
0
0
0
0
0
0
0
0
0
1
0
0
0
0
0
0
0
1
0
0
0
0
0
0
1
0
0
0
0
0
0
0
0
0
0
0
0
0
0
0
0
0
0
0
0
0
0
0
0
0
0
0
0
0
0
0
0
0
0
0
0
0
0
1
0
0
0
0
0
1
0
0
0
0
0
0
0
1
0
0
0
0
0
0
0
0
0
0
0
0
0
1
0
0
0
0
0
0
0
0
0
0
0
0
0
0
0
0
0
0
0
0
0
0
0
0
0
0
0
0
0
0
0
0
0
0
0
0
0
0
0
0
0
0
0
0
0
0
0
0
0
0
0
0
0
1
0
0
0
0
0
0
0
0
0
0
0
0
0
0
0
0
0
0
0
1
0
0
0
0
0
0
0
0
0
1
0
0
0
0
0
0
0
0
0
0
0
0
0
0
0
0
0
0
0
0
0
0
0
0
0
0
0
0
0
1
0
1
0
0
0
0
0
0
0
0
0
0
0
0
0
0
0
0
0
0
0
0
0
0
0
0
0
0
0
1
0
0
0
1
0
0
0
0
0
0
0
0
0
0
0
0
0
0
0
0
0
0
0
0
0
0
0
0
0
0
0
0
1
0
0
0
0
0
0
0
0
0
0
0
0
0
0
0
0
0
0
0
0
0
0
0
0
0
1
0
0
0
0
0
0
0
0
0
0
0
0
0
0
0
0
0
0
0
0
0
0
0
1
0
0
0
0
0
0
1
0
0
0
0
0
0
0
0
0
0
0
1
0
0
0
0
0
0
0
0
0
0
0
0
0
0
0
0
0
0
0
0
1
0
0
0
0
0
0
0
0
0
0
0
1
0
0
0
0
0
0
0
0
0
0
0
0
0
0
0
0
0
0
0
0
0
1
0
0
0
0
0
0
0
0
0
1
1
0
1
0
1
0
0
0
0
0
0
0
0
0
0
0
1
0
0
0
0
0
1
1
0
0
0
0
0
0
1
0
0
0
0
0
1
1
1
0
0
0
0
0
0
0
0
0
0
0
0
1
1
0
0
1
0
0
0
0
0
1
0
0
0
1
0
1
0
0
0
0
0
0
0
1
0
0
0
0
0
0
0
1
0
0
1
0
0
0
0
0
0
0
0
0
0
0
0
0
0
0
1
0
0
0
0
0
0
0
0
0
0
0
0
0
0
0
0
0
0
0
0
0
0
0
0
0
0
0
0
0
0
0
0
0
0
0
0
1
0
0
0
0
0
0
1
0
0
0
1
0
0
0
0
0
0
0
0
0
0
0
1
0
0
0
0
0
0
0
0
0
0
0
0
0
0
0
0
0
0
0
0
0
0
0
0
0
0
0
0
0
0
0
0
0
0
0
0
0
0
0
0
1
1
0
0
0
0
0
0
0
0
0
0
0
0
0
1
0
0
0
0
0
0
0
0
0
0
0
0
0
0
0
0
0
0
0
0
0
0
0
0
0
0
0
0
0
0
0
0
0
0
0
0
0
0
0
0
0
0
0
0
0
0
0
0
0
0
0
0
0
0
0
0
0
0
0
0
0
0
0
0
0
0
0
0
0
0
0
0
1
1
0
0
0
0
0
0
0
0
1
0
0
0
0
0
0
0
0
0
0
0
0
0
0
0
0
0
0
0
0
0
0
0
1
0
0
0
0
0
0
0
0
0
0
0
0
0
0
0
0
1
0
0
0
0
0
0
0
0
0
0
0
0
0
0
0
0
0
0
0
0
0
0
0
0
0
0
0
0
0
0
0
0
0
0
0
0
0
0
0
0
0
0
0
0
0
0
0
0
0
0
0
0
0
0
0
0
0
0
0
0
0
0
0
0
0
0
0
0
0
0
0
0
0
0
0
0
0
0
0
0
0
0
0
0
0
0
0
0
0
0
1
1
0
0
0
0
0
1
0
0
0
0
0
0
0
0
0
0
0
0
1
0
0
0
0
0
0
0
0
0
0
0
0
0
0
0
0
0
0
0
0
0
0
0
0
0
0
0
0
0
0
0
0
0
0
0
0
0
0
0
0
0
0
0
0
0
0
0
0
0
0
0
0
0
1
0
1
0
0
0
0
0
0
0
0
0
0
0
0
0
0
0
0
0
0
1
0
0
0
0
0
0
0
0
0
0
0
0
0
0
0
0
0
0
0
0
0
0
0
0
0
0
0
0
0
0
0
0
0
0
0
0
0
0
0
0
0
0
0
0
0
0
0
0
0
0
0
0
0
0
0
0
0
0
0
0
0
0
0
0
0
0
0
0
0
0
1
0
0
0
0
0
0
0
0
0
0
1
0
0
0
0
0
0
0
0
0
0
0
0
0
0
0
0
0
0
0
0
0
0
0
0
0
0
0
0
0
0
0
0
0
0
0
0
0
1
0
0
0
0
0
0
0
0
0
0
0
0
0
0
0
0
0
0
0
0
0
0
0
0
0
0
0
0
0
0
0
0
0
0
0
0
0
0
0
0
0
0
0
0
0
0
0
0
0
0
0
0
0
0
0
0
0
0
0
0
0
0
0
0
0
0
0
0
0
0
0
0
0
0
0
0
0
0
0
0
0
1
0
0
0
0
0
0
0
0
0
0
0
0
0
0
0
0
0
0
0
0
0
0
0
0
0
0
0
0
0
0
0
0
0
0
0
0
0
0
0
0
0
0
0
0
0
0
0
0
0
0
0
0
0
0
0
0
0
0
0
0
0
0
0
0
0
0
0
0
0
0
0
0
0
0
0
0
0
0
0
0
0
0
0
0
0
0
0
0
0
0
0
0
0
0
0
0
0
0
0
0
0
0
0
0
0
0
0
0
0
0
0
0
0
0
0
0
0
0
0
0
0
0
0
1
0
0
0
0
0
0
0
0
0
0
0
0
0
0
0
0
0
0
0
0
0
0
0
0
0
0
0
0
0
0
0
0
0
0
0
0
0
0
0
0
0
0
0
0
0
0
0
0
0
0
0
0
0
0
0
0
0
0
0
0
0
0
0
0
0
0
0
0
0
0
0
0
0
0
0
0
0
0
0
0
0
1
0
0
0
0
0
0
0
1
0
0
0
0
0
0
0
0
0
0
0
0
0
0
0
0
0
0
0
0
0
0
0
0
0
0
0
0
0
0
0
0
0
0
0
0
0
1
0
0
0
0
0
0
0
0
0
0
0
0
0
0
0
0
0
0
0
0
0
1
0
0
0
0
0
0
0
0
0
0
0
0
1
1
0
0
0
0
0
0
0
0
0
0
0
0
0
0
0
1
1
0
1
0
0
0
0
0
0
0
0
0
1
0
0
0
0
0
0
1
0
0
0
0
0
0
0
0
0
0
1
0
0
0
0
1
0
1
0
0
0
0
0
0
0
1
0
0
0
1
0
0
0
1
0
1
1
0
0
1
1
0
0
0
1
0
0
0
1
0
0
0
0
0
0
0
0
0
1
0
0
0
0
0
0
1
0
0
0
0
0
0
0
0
0
0
0
0
0
0
0
0
0
0
0
0
0
0
0
0
0
0
0
1
0
0
1
0
0
0
0
0
0
0
0
0
0
0
0
0
0
0
0
0
0
1
0
0
1
0
0
0
0
0
0
0
0
0
0
0
1
0
0
1
0
0
0
0
0
0
0
0
0
0
0
1
1
0
0
0
0
0
0
0
0
0
0
0
0
1
0
0
0
0
0
0
0
0
0
0
0
0
0
0
0
0
0
1
0
0
0
0
0
0
0
0
0
0
0
0
0
0
0
0
0
1
0
0
0
0
0
0
0
0
0
0
0
0
0
0
0
0
0
0
0
0
0
0
0
0
0
0
0
0
0
0
0
0
0
0
0
0
0
0
0
0
1
0
0
0
0
0
0
0
0
0
0
0
0
0
0
0
0
0
0
0
0
0
0
0
0
0
0
0
0
0
0
0
0
0
0
0
0
0
0
0
0
0
0
0
0
0
1
0
0
0
0
0
0
0
0
0
0
0
0
0
0
0
0
0
0
0
0
0
0
0
0
0
0
0
0
0
0
0
0
0
0
0
0
0
0
0
0
0
0
0
0
0
0
0
1
0
0
0
0
0
0
0
0
0
0
1
0
0
0
0
0
0
0
0
0
0
0
0
0
0
0
1
0
0
1
0
0
0
0
0
0
0
0
0
0
0
0
0
0
0
0
0
0
0
0
0
0
0
1
0
0
0
0
0
0
0
0
0
0
0
0
0
0
0
0
0
0
0
0
0
0
0
0
0
0
0
0
0
0
0
0
0
0
0
1
0
0
0
0
0
0
0
0
0
0
0
0
0
0
0
0
0
0
0
0
0
0
0
0
0
0
0
0
0
0
0
0
0
0
0
0
0
0
0
0
0
0
0
0
0
0
0
0
0
0
0
0
0
0
0
0
0
0
0
0
0
0
0
0
0
0
0
0
0
0
0
0
0
0
0
0
1
0
0
0
0
0
0
0
0
0
0
0
0
0
0
0
0
0
0
0
0
0
0
0
0
0
0
0
0
0
0
0
0
0
0
0
0
0
0
0
1
0
0
0
0
0
0
0
0
0
0
0
0
1
1
0
0
0
0
0
0
0
0
0
0
0
0
0
0
0
0
0
0
0
0
0
0
0
0
0
0
0
0
0
0
0
0
0
0
0
0
0
0
0
0
0
0
0
0
0
0
0
0
0
0
0
0
0
0
0
0
0
0
0
0
0
0
0
0
0
0
0
0
0
0
0
0
0
0
0
0
0
0
0
0
0
0
0
0
0
0
0
0
0
0
0
0
0
0
0
0
0
0
0
0
0
1
0
1
0
0
0
0
0
0
0
1
1
1
1
0
0
0
0
0
0
0
0
0
0
0
0
0
0
0
0
0
0
0
0
0
0
0
0
0
0
0
0
1
1
0
0
0
0
0
0
0
0
0
0
0
0
0
0
0
0
0
0
1
0
0
0
0
0
0
0
1
1
0
1
1
0
0
1
0
0
0
0
0
0
0
1
0
1
0
0
0
0
0
0
0
0
0
0
0
0
0
0
0
0
0
0
0
0
0
0
0
0
0
0
0
1
1
0
0
0
1
1
0
0
0
0
1
0
0
1
0
1
0
0
0
0
0
1
0
0
0
1
0
0
0
0
0
0
0
0
0
0
0
0
0
0
0
0
0
0
0
0
0
0
0
0
0
0
0
1
0
0
0
0
0
0
1
0
0
0
0
0
0
0
0
0
0
0
0
0
0
0
0
0
0
0
0
0
0
0
0
0
0
0
0
0
1
0
1
0
0
0
0
0
0
0
1
0
0
0
0
0
0
0
0
0
0
0
1
0
0
0
0
0
0
0
0
0
1
0
0
0
0
0
0
0
1
0
0
0
0
0
0
0
1
0
0
0
0
0
0
0
0
0
0
0
0
0
0
0
0
0
0
0
1
0
1
0
0
0
0
0
1
0
0
0
0
0
0
0
0
0
0
0
0
0
0
0
0
0
0
0
0
0
0
0
0
0
1
0
1
0
0
0
0
0
0
0
0
0
1
0
0
0
0
0
1
0
0
0
0
0
0
0
0
0
0
0
0
0
0
0
1
0
0
0
0
0
0
0
0
1
0
0
0
0
0
0
0
0
0
0
0
0
0
0
0
0
0
0
0
0
0
0
0
0
0
0
0
0
0
0
1
0
0
0
0
0
0
0
0
0
0
0
0
0
0
0
0
1
0
0
0
0
0
0
0
0
1
0
0
0
0
0
0
0
0
0
1
0
0
0
0
0
1
0
0
0
0
0
0
0
0
0
0
0
0
0
0
0
0
0
0
0
1
0
0
0
0
0
0
1
0
0
0
0
0
0
0
0
1
0
0
0
0
0
0
0
0
0
0
0
0
0
0
1
0
0
1
0
0
0
1
0
0
0
0
0
0
0
0
0
0
0
0
0
0
0
0
1
0
0
0
0
0
0
0
0
0
0
1
0
1
0
0
0
0
0
0
1
0
0
0
0
0
0
0
0
0
0
0
0
0
0
0
0
0
0
0
0
0
0
0
0
0
0
0
1
1
0
0
0
0
0
0
1
0
0
0
0
0
0
0
0
0
0
0
0
0
1
0
0
0
0
0
0
0
1
0
0
0
0
0
0
0
0
0
0
0
0
0
0
0
0
0
0
0
0
0
0
0
0
0
0
0
1
0
0
0
0
0
0
0
0
0
0
1
0
0
1
0
0
0
0
0
0
0
0
0
0
0
0
0
0
0
0
0
0
0
0
0
0
0
0
0
0
0
0
0
1
0
0
0
0
0
0
0
1
0
0
0
0
0
0
0
1
0
0
0
0
1
0
0
0
0
0
0
0
0
0
0
0
1
0
1
0
0
0
1
0
				</DataArray>
				<DataArray type="Float64" Name="h" NumberOfComponents="1" Format="ascii">
1.2475801080
1.2475946025
1.2461818055
1.2480660970
1.2455714334
1.2464406003
1.2466961207
1.2494160463
1.2477229180
1.2524708201
1.2491371177
1.2467869741
1.2484774263
1.2502959184
1.2489455841
1.2505601368
1.2476551400
1.2514146502
1.2475249116
1.2494394563
1.2463220121
1.2472998492
1.2451265575
1.2454369151
1.2485112428
1.2521988179
1.2439961713
1.2405123087
1.2446069516
1.2514663918
1.2505669584
1.2452858300
1.2472151018
1.2467008470
1.2455310207
1.2444617148
1.2460843639
1.2433853211
1.2393005882
1.2455772788
1.2447643762
1.2422372583
1.2443104888
1.2430541331
1.2447228069
1.2413286513
1.2436476265
1.2459598496
1.2516198612
1.2481323046
1.2462050410
1.2431391614
1.2434459242
1.2434312652
1.2436611300
1.2419198023
1.2422216993
1.2466670589
1.2460757347
1.2444918572
1.2489633615
1.2486714872
1.2508788787
1.2436643374
1.2414702707
1.2399519042
1.2449848693
1.2476057248
1.2481099220
1.2480462818
1.2464293432
1.2445258998
1.2410736931
1.2442816694
1.2452888313
1.2347810612
1.2462050215
1.2481940390
1.2461457083
1.2374404839
1.2509737723
1.2404971087
1.2609194871
1.2446134308
1.2364212399
1.2366399379
1.2521467432
1.2416490240
1.2478519577
1.2568392143
1.2520575303
1.2360820099
1.2492547514
1.2527980742
1.2386970594
1.2379309711
1.2392278283
1.2372261514
1.2382193575
1.2517594531
1.2586313508
1.2515092189
1.2408914288
1.2469341556
1.2558590469
1.2422490594
1.2363254523
1.2537709125
1.2475509579
1.2399657273
1.2506624635
1.2545632933
1.2503590629
1.2515297216
1.2431274207
1.2596706376
1.2421822795
1.2544769899
1.2561028335
1.2456512165
1.2554347306
1.2406828434
1.2337943658
1.2580986400
1.2497602168
1.2554469074
1.2444181570
1.2593446678
1.2583044837
1.2599207358
1.2559103048
1.2379242721
1.2469602921
1.2604370489
1.2543851387
1.2550522025
1.2543766582
1.2618734302
1.2540268910
1.2479687502
1.2605073184
1.2562175579
1.2578169594
1.2446211093
1.2354959837
1.2544647353
1.2511069372
1.2670695311
1.2575158547
1.2701048915
1.2554774539
1.2624176580
1.2637993158
1.2700114311
1.2527068888
1.2633226870
1.2670671169
1.2578636446
1.2693752787
1.2639055214
1.2457302790
1.2665558900
1.2520847395
1.2612168308
1.2588493683
1.2634183889
1.2412763486
1.2492376122
1.2609914116
1.2648830126
1.2656727348
1.2637746230
1.2690221089
1.2587586139
1.2388946604
1.2729116088
1.2422486229
1.2681797902
1.2717512539
1.2616905794
1.2624476010
1.2358465788
1.2642457791
1.2324483717
1.2642529397
1.2659176376
1.2382009600
1.2714060072
1.2622656550
1.2671525828
1.2331739335
1.2711007758
1.2660374426
1.2354852787
1.2726057901
1.2664197233
1.2604626432
1.2310135644
1.2331364454
1.2726705695
1.2673597205
1.2333387000
1.2664190755
1.2719987933
1.2295034108
1.2638429436
1.2486795445
1.2553597453
1.2313584851
1.2414106883
1.2313975594
1.2658748838
1.2619999800
1.2651538026
1.2521147333
1.2288580454
1.2450811726
1.2614366551
1.2344262495
1.2652617029
1.2302323795
1.2534058498
1.2377999483
1.2456279543
1.2322172515
1.2710318362
1.2616601511
1.2389252863
1.2286648749
1.2575604178
1.2717573281
1.2493887738
1.2356596531
1.2724541038
1.2686613111
1.2421351561
1.2287221504
1.2453215912
1.2664282007
1.2373086299
1.2262174235
1.2525913902
1.2616755849
1.2386496388
1.2532014015
1.2462236092
1.2627722885
1.2316280353
1.2490968212
1.2589624537
1.2413573229
1.2295533750
1.2598917537
1.2264302517
1.2235192082
1.2630841240
1.2424333116
1.2498176081
1.2651625066
1.2475442962
1.2333157044
1.2284186355
1.2361920843
1.2437261791
1.2333088725
1.2671273816
1.2699183276
1.2258263098
1.2718705504
1.2519134097
1.2603257201
1.2349959357
1.2556574814
1.2401566685
1.2437688953
1.2240977852
1.2324178312
1.2398864421
1.2477413129
1.2296864640
1.2597888105
1.2714821732
1.2698867903
1.2674381985
1.2561653561
1.2515244325
1.2367615248
1.2410694306
1.2602491150
1.2587338036
1.2424361696
1.2231511081
1.2490221869
1.2501564479
1.2321479606
1.2198738613
1.2340796329
1.2452098235
1.2557596429
1.2630917025
1.2602055898
1.2464227868
1.2262923600
1.2171301234
1.2207913998
1.2366764558
1.2234787703
1.2382761780
1.2570912421
1.2240147889
1.2375699204
1.2330205062
1.2706918696
1.2206230965
1.2586557456
1.2456252811
1.2276655630
1.2541230087
1.2684766187
1.2300110200
1.2413672014
1.2296568939
1.2500289829
1.2657904739
1.2286891478
1.2336738052
1.2371851920
1.2686177745
1.2415311256
1.2498408335
1.2583443059
1.2659037019
1.2701540268
1.2188567509
1.2456549911
1.2253479081
1.2544111089
1.2377640246
1.2621835959
1.2258732264
1.2125272769
1.2284155509
1.2569972576
1.2165003733
1.2446756638
1.2359161976
1.2462529804
1.2550732529
1.2531608967
1.2120764448
1.2099758900
1.2338182408
1.2421652052
1.2536182670
1.2562846380
1.2309859794
1.2142541837
1.2162669748
1.2331273048
1.2384128002
1.2439190563
1.2597930790
1.2602114897
1.2197967293
1.2142482759
1.2405037259
1.1996700895
1.2058331455
1.2234070761
1.2565892279
1.2249502570
1.2453440990
1.2518802760
1.2667177940
1.2432588934
1.2385802372
1.2641328175
1.2353467434
1.2566205035
1.2191619051
1.2148533705
1.2521858876
1.2691877652
1.2208470669
1.2477255214
1.2238718571
1.2254899046
1.2345161740
1.2294117878
1.1988838199
1.2685025376
1.2132425538
1.2388629214
1.1899159539
1.2640436640
1.2431384693
1.2309632848
1.2182730065
1.2121055915
1.1869980348
1.2245156523
1.2565316731
1.1889295717
1.2477201715
1.1874104629
1.2670299600
1.2522650844
1.2204400794
1.2301189247
1.1930815347
1.2340406880
1.2058992319
1.2422173450
1.2086206120
1.2321815744
1.2570467086
1.2517218134
1.2216724761
1.2389117746
1.2163502659
1.1976528499
1.1936824506
1.2415927859
1.2487172267
1.2572405697
1.2323311972
1.2628779236
1.2530788300
1.2404211322
1.2090686522
1.2179117271
1.2560975469
1.2301454035
1.2498979661
1.2196740783
1.2286581871
1.2376495996
1.2470640237
1.2597924850
1.1969785908
1.2063259788
1.2182922672
1.2370924651
1.2308003492
1.2022065291
1.2269652491
1.2220171616
1.2093563836
1.2372942601
1.2366656271
1.2264739270
1.2652176934
1.2565932406
1.2101944588
1.2123124912
1.1936805510
1.2527226112
1.2462620341
1.2163878420
1.2490839179
1.2494858038
1.2072247873
1.2257636505
1.2673640843
1.2166501602
1.2404700902
1.2272816666
1.2209602086
1.1861342329
1.2362565754
1.2621364954
1.2140707580
1.2498310484
1.2043444638
1.2089767907
1.2310462980
1.2458048024
1.1917452878
1.2485739359
1.2326978968
1.2284799295
1.2004745934
1.2312625022
1.2651179975
1.2297586808
1.2381144787
1.2543264807
1.2238594097
1.2357731352
1.2125482944
1.2051042211
1.2152341708
1.2441764783
1.2447770738
1.2309643607
1.2054462042
1.2199214451
1.2379388714
1.2451721403
1.2229304275
1.2174616485
1.2289668476
1.1975166081
1.2121060570
1.1869964893
1.2086954239
1.2261709287
1.2523299484
1.2011772744
1.2081805263
1.2238585864
1.2015080636
1.2157460900
1.2140736093
1.1972146842
1.2485750116
1.2229932499
1.2018169027
1.2459859774
1.2107254432
1.2015074379
1.2113484411
1.2056913357
1.2614942392
1.2231923032
1.2327662614
1.2182376293
1.2137507700
1.1928003762
1.1971677811
1.2315666208
1.2257655998
1.2214100670
1.2340226731
1.2362564745
1.1866316088
1.2447770203
1.2199241901
1.2523324290
1.1927992913
1.2004730235
1.1868465291
1.2037113847
1.2496021660
1.1930369817
1.2170033307
1.2249268045
1.2043452541
1.1890911235
1.2087468183
1.2523954512
1.1981743507
1.2289200306
1.1904156515
1.2424080121
1.1935993225
1.1961772937
1.2128701423
1.2416100984
1.2503813431
1.2001934689
1.2172609137
1.2462516602
1.2312633565
1.1879097429
1.2470677755
1.2086975444
1.2272778899
1.2113110137
1.2652056294
1.2049072592
1.2087946935
1.2243660566
1.2118515739
1.2163443450
1.2407979382
1.2036784543
1.2013083808
1.2157424378
1.1931097913
1.2095154378
1.2372969067
1.2174583040
1.2122338654
1.2048573511
1.2280736753
1.2597824467
1.2422217470
1.2220116324
1.2086118119
1.2628658373
1.1879397602
1.2039808749
1.1884820789
1.2080829303
1.2101896046
1.1911009480
1.2445657187
1.2439030115
1.1876183149
1.1887761227
1.1972580360
1.2422444676
1.2161868541
1.2323304113
1.2039299162
1.1921679360
1.2323980078
1.2517214281
1.1983912818
1.1956873575
1.2328724232
1.2279857397
1.2072241943
1.2013077898
1.2224869342
1.2108575692
1.2340234573
1.2049083956
1.1971675522
1.2231937792
1.2548521885
1.1973000593
1.2370474297
1.2459872917
1.2029741683
1.2026670127
1.2255049398
1.2424085916
1.2091554990
1.1921677154
1.2072635604
1.2064424289
1.1961762696
1.2107269365
1.2001940027
1.2289212186
1.2187318213
1.2289272124
1.2157276790
1.2079792051
1.2496046724
1.1972688347
1.1894474847
1.1907121061
1.2465715589
1.2235892542
1.1904151091
1.2000883781
1.2366413803
1.1999730649
1.2050633312
1.2382663107
1.2243356856
1.1922367079
1.1938098975
1.1899156446
1.2170049229
1.2156251931
1.2117583806
1.2423148962
1.2295324574
1.2127138492
1.2220563330
1.2321753395
1.2127722446
1.1945067578
1.1988284464
1.2341055705
1.2183006676
1.2370500885
1.2376313850
1.1866307229
1.2020265393
1.1883065344
1.2092040802
1.2176859858
1.2093927978
1.2086675560
1.2302161217
1.2272945402
1.1893913677
1.1937079180
1.2194986475
1.1992325208
1.2057214572
1.2060330460
1.2220849459
1.2297148663
1.2243149302
1.2043006825
1.2075329567
1.2014428671
1.2062778901
1.2089620391
1.2220600845
1.2235101605
1.2190451268
1.2205675146
1.1913289314
1.2248691693
1.2259288151
1.2008949441
1.2289326013
1.2263759431
1.1983921215
1.2265794396
1.1981740856
1.2288404444
1.2120665425
1.2085881117
1.2270712323
1.2072247763
1.2273337572
1.2335819523
1.2172615406
1.2351301574
1.2148844706
1.2111726300
1.2337962010
1.2397063792
1.2277546973
1.2466058620
1.2465220334
1.2465314958
1.2466176769
1.2475140367
1.2467828240
1.2491285665
1.2485541599
1.2457572873
1.2464345744
1.2455768191
1.2457667269
1.2477312516
1.2489331799
1.2466891869
1.2510710402
1.2485650732
1.2475203648
1.2500700936
1.2514038050
1.2480740637
1.2461860590
1.2475094024
1.2514573181
1.2506452523
1.2471117536
1.2494270238
1.2521937853
1.2485049680
1.2524815013
1.2492058381
1.2484930268
1.2461294022
1.2484261413
1.2460482826
1.2510817639
1.2505598134
1.2500838094
1.2466979380
1.2471983547
1.2452726695
1.2450815125
1.2455741500
1.2386579869
1.2476590134
1.2505715689
1.2442948343
1.2392918859
1.2471151428
1.2506563543
1.2447556137
1.2503047653
1.2494458871
1.2461330199
1.2451415182
1.2452490316
1.2473149702
1.2456678393
1.2492209163
1.2463251140
1.2460666970
1.2461004865
1.2405933991
1.2459584710
1.2484388292
1.2447198182
1.2462019717
1.2436325121
1.2405147733
1.2454409459
1.2446183971
1.2422169361
1.2395264714
1.2440153106
1.2453193031
1.2527621191
1.2386645290
1.2431562525
1.2463057254
1.2450989588
1.2434352686
1.2452494526
1.2500475891
1.2490112963
1.2461167326
1.2456706648
1.2450310691
1.2405971769
1.2444666017
1.2414604429
1.2433996355
1.2444935427
1.2455325907
1.2508762208
1.2476006374
1.2416509543
1.2460874243
1.2436608615
1.2431563910
1.2454619334
1.2452692865
1.2430654873
1.2442821797
1.2435387839
1.2445243532
1.2410556838
1.2473913200
1.2385214398
1.2409998730
1.2453214427
1.2495670598
1.2463084944
1.2422408020
1.2462048054
1.2464292873
1.2454000489
1.2452893276
1.2395374206
1.2416089586
1.2481090943
1.2460958294
1.2527727138
1.2480443550
1.2450335059
1.2444933828
1.2388793220
1.2416518372
1.2459988107
1.2442708460
1.2466797897
1.2516232422
1.2431462885
1.2490159106
1.2413354872
1.2405008049
1.2446076357
1.2419895733
1.2500547034
1.2481406517
1.2489639248
1.2486730498
1.2416217849
1.2498920630
1.2453999258
1.2460757813
1.2446485366
1.2435354021
1.2346068182
1.2391105126
1.2454617359
1.2460985614
1.2433415033
1.2436628188
1.2475923412
1.2473920051
1.2495687079
1.2419377880
1.2416171442
1.2461100418
1.2385384014
1.2434257858
1.2452685768
1.2444894084
1.2360741982
1.2466679490
1.2410098795
1.2492546497
1.2459997925
1.2469318755
1.2382126472
1.2419844473
1.2366950802
1.2442692066
1.2515082334
1.2438267948
1.2503990328
1.2433165743
1.2399541855
1.2586396606
1.2449960246
1.2463990001
1.2372192657
1.2504303136
1.2379265777
1.2430071433
1.2466940762
1.2517596938
1.2422361404
1.2388846097
1.2626914714
1.2416109318
1.2475510505
1.2545624810
1.2498930193
1.2461101888
1.2503573944
1.2433386342
1.2347930364
1.2489699531
1.2446468845
1.2481944982
1.2391266729
1.2527089644
1.2346179780
1.2506509595
1.2399683906
1.2475924372
1.2503997067
1.2626775911
1.2423061106
1.2504313422
1.2366479677
1.2406792107
1.2466061970
1.2464012216
1.2548080070
1.2430022844
1.2433173928
1.2364340762
1.2374480721
1.2521469481
1.2609033179
1.2509739056
1.2421870886
1.2461466223
1.2438454646
1.2554270912
1.2416565523
1.2367089892
1.2527085459
1.2379197729
1.2470476657
1.2549819290
1.2554485257
1.2491464759
1.2527251498
1.2478519017
1.2386989044
1.2528065182
1.2583384151
1.2568335036
1.2520569218
1.2544919349
1.2473331900
1.2497563582
1.2444198524
1.2489913254
1.2599252652
1.2408909363
1.2594398138
1.2454864146
1.2423008920
1.2548147781
1.2466051445
1.2523320376
1.2543775524
1.2550540611
1.2469608893
1.2558660434
1.2392363647
1.2354860968
1.2437700000
1.2562104773
1.2484340284
1.2549867166
1.2583330892
1.2515307685
1.2537700040
1.2536306666
1.2473350593
1.2527260793
1.2431258535
1.2575092295
1.2470679961
1.2578196541
1.2593031522
1.2596664392
1.2491472937
1.2544662829
1.2544904738
1.2363350595
1.2563256121
1.2332060441
1.2423543987
1.2638974618
1.2594339816
1.2523350580
1.2573379983
1.2601995925
1.2577161080
1.2535803270
1.2456497491
1.2455159373
1.2624190843
1.2544846951
1.2549977189
1.2561017029
1.2531341814
1.2554767490
1.2638030805
1.2527066046
1.2536359439
1.2593104332
1.2492327304
1.2588440576
1.2484373039
1.2678688147
1.2563322437
1.2603132699
1.2689518131
1.2412857846
1.2437957445
1.2581059611
1.2583025311
1.2457198546
1.2573189621
1.2338058476
1.2559089050
1.2531784797
1.2520821922
1.2566727041
1.2665637167
1.2593512916
1.2693799086
1.2535797374
1.2543817929
1.2604353254
1.2651782533
1.2393859087
1.2577086458
1.2615991817
1.2618696822
1.2690241708
1.2519533906
1.2572190990
1.2540268921
1.2531419530
1.2423828495
1.2573385746
1.2638947486
1.2332165884
1.2549968342
1.2648900791
1.2570501074
1.2601971017
1.2656746003
1.2587555984
1.2700996087
1.2642386120
1.2385223698
1.2573254689
1.2603193638
1.2617457034
1.2670340942
1.2700771476
1.2446360317
1.2670607167
1.2511113879
1.2616859081
1.2689435723
1.2531854727
1.2413041649
1.2633402689
1.2605126819
1.2624559716
1.2566712858
1.2422345468
1.2555263596
1.2479792592
1.2678632576
1.2627157761
1.2622580041
1.2633155360
1.2670641127
1.2572188407
1.2364081157
1.2651732282
1.2549335789
1.2519598678
1.2394056531
1.2642435601
1.2615939473
1.2700112079
1.2578669581
1.2570492249
1.2381828100
1.2353773016
1.2726060058
1.2412935617
1.2627223711
1.2617344234
1.2664338723
1.2633459217
1.2700741218
1.2555259829
1.2655601593
1.2645649129
1.2670294491
1.2385371784
1.2618661919
1.2711013032
1.2588414952
1.2612215317
1.2634089830
1.2354679654
1.2695601018
1.2639128830
1.2333260738
1.2730163614
1.2637832427
1.2664095484
1.2389103638
1.2720012177
1.2364251690
1.2609992734
1.2673495224
1.2549401616
1.2331220752
1.2729581079
1.2717505215
1.2606081424
1.2645731952
1.2618730948
1.2658658465
1.2695509234
1.2655482339
1.2631635628
1.2647822787
1.2358621997
1.2588404858
1.2729118227
1.2353902586
1.2670077236
1.2671648184
1.2681651092
1.2619959058
1.2313473922
1.2331884791
1.2717617665
1.2730158818
1.2671626388
1.2729567608
1.2713662314
1.2729800423
1.2324603837
1.2659271120
1.2714035932
1.2302235597
1.2627664759
1.2462198863
1.2589113685
1.2532032171
1.2310256971
1.2671748236
1.2269810641
1.2655012481
1.2386364620
1.2585358467
1.2606105954
1.2287095934
1.2660463384
1.2667093719
1.2647633153
1.2604655543
1.2657206684
1.2498175528
1.2566211410
1.2264220525
1.2424243698
1.2598893521
1.2316128955
1.2670175811
1.2664188021
1.2631693394
1.2708280911
1.2248763714
1.2295130213
1.2713615346
1.2515014810
1.2349806105
1.2729784009
1.2437307377
1.2296800783
1.2699001311
1.2598019568
1.2654488022
1.2367377934
1.2258265160
1.2556529717
1.2726673305
1.2475088184
1.2332939717
1.2718764440
1.2637144119
1.2671486808
1.2401244988
1.2314136175
1.2424333532
1.2558859233
1.2652696854
1.2340680580
1.2231438183
1.2585365977
1.2269895669
1.2589124239
1.2645102237
1.2216373049
1.2501596974
1.2602448193
1.2655093686
1.2414239911
1.2553594733
1.2486830094
1.2638497509
1.2344440115
1.2464240005
1.2570905502
1.2667190288
1.2382684291
1.2262807283
1.2614405669
1.2288702170
1.2207897668
1.2537029235
1.2640076841
1.2450898827
1.2566206422
1.2521157902
1.2657297157
1.2494141331
1.2299979400
1.2193581122
1.2253522283
1.2336574393
1.2414935214
1.2356790923
1.2636917594
1.2686460870
1.2686351820
1.2286711765
1.2724503116
1.2641641916
1.2498081150
1.2583482364
1.2378165850
1.2708197804
1.2575555851
1.2421665088
1.2456613694
1.2206319602
1.2296522381
1.2375415356
1.2455851686
1.2322292925
1.2616429514
1.2654282654
1.2707011050
1.2248802409
1.2710246205
1.2658135223
1.2541069212
1.2623250239
1.2534170580
1.2389501892
1.2377616399
1.2525186838
1.2616810091
1.2645172439
1.2569945464
1.2453236418
1.2262292384
1.2154475558
1.2462561360
1.2216383130
1.2525890439
1.2284068481
1.2164981369
1.2373201592
1.2558848977
1.2421663280
1.2536188375
1.2640158395
1.2614902831
1.2490955982
1.2295681318
1.2142507673
1.2500540556
1.2235257586
1.2537005501
1.2331211597
1.2197900815
1.2413642481
1.2589644940
1.2204500257
1.2399196341
1.2301147826
1.2714759096
1.2240939010
1.2565277357
1.2477773931
1.2238628365
1.2561705388
1.2623061252
1.2625599602
1.2670478080
1.2131854213
1.2333302299
1.2388364876
1.2324312518
1.2476894323
1.2674178009
1.2254950660
1.2362162283
1.2345004062
1.2699068260
1.2193543863
1.2605910451
1.2437650836
1.2519369876
1.2603131656
1.2641518610
1.2691997010
1.2148629501
1.2432264204
1.2284219386
1.2521656907
1.2641419717
1.2570551209
1.2179172120
1.2088109957
1.2389150802
1.2410707876
1.2525164260
1.2602570677
1.2525006114
1.2216670321
1.2117782702
1.2090685136
1.2321568111
1.2333040501
1.2487212821
1.2593499275
1.2587377183
1.2198801027
1.2154443905
1.2415945462
1.2321794193
1.2490190224
1.2059024936
1.2003489250
1.2286637065
1.2530773011
1.2228880001
1.2434038051
1.2484420319
1.2555994243
1.2156837465
1.2072269154
1.2369061031
1.2452080348
1.2557601784
1.2626979556
1.2539306843
1.2269609395
1.2174623422
1.2123095826
1.2366818238
1.2353273238
1.2467521672
1.2615051813
1.2614972141
1.2234886072
1.2171311460
1.2456962308
1.2370926156
1.2500511387
1.2031637840
1.2029147017
1.2267264730
1.2581865265
1.2281360065
1.2481526222
1.2494865329
1.1963329169
1.2651331173
1.2068695335
1.2456911236
1.1872167550
1.2606123265
1.2357623015
1.2658829537
1.2326967589
1.2297562991
1.2161064075
1.2543216357
1.2125479523
1.1867135031
1.2152426316
1.2605798121
1.2188466120
1.1880544216
1.2544248743
1.1891011432
1.2701453499
1.2166451899
1.2451533823
1.2276762001
1.2286912263
1.2372109179
1.1947268065
1.2261748037
1.1975170503
1.2673768665
1.2089819565
1.2414014404
1.1887774426
1.2621497924
1.2404530774
1.2625428102
1.2367617329
1.2335628340
1.2161612003
1.2584954741
1.2104864710
1.1854834958
1.2209679003
1.2586518204
1.2131797601
1.1876193823
1.2500578796
1.1861355916
1.2684616228
1.2498167458
1.2240081718
1.2330344694
1.1917460739
1.2310433763
1.2095617292
1.2357837723
1.2450061289
1.2582997429
1.2018187383
1.2117746337
1.2113518196
1.2160693712
1.2359175866
1.2592491654
1.2258089326
1.2541990178
1.2592590488
1.1973838190
1.2258789848
1.2418875422
1.2200772857
1.2003468681
1.2213870361
1.1969020192
1.2067361730
1.2446734051
1.2513729218
1.2593382225
1.2353882899
1.2416193867
1.2418879825
1.2315745890
1.2646285926
1.2550758088
1.2077877017
1.2433974984
1.2125297466
1.1996678847
1.1976549766
1.2524077110
1.2503921004
1.2213808264
1.2214159182
1.2538291333
1.2332980334
1.2524912566
1.2451030824
1.2484399530
1.2088092826
1.2228822514
1.2318582560
1.2572518080
1.2120728286
1.2406108308
1.2497125708
1.2404288795
1.2618375587
1.1983948526
1.2058302517
1.2087097931
1.2208892988
1.2405028245
1.2602452181
1.2278463614
1.2560246111
1.2013526742
1.2309898534
1.2439155795
1.2254681109
1.1945802531
1.1945819861
1.2113302244
1.2456942227
1.2531532761
1.2562756559
1.2402107906
1.2397139206
1.2295393707
1.2665249746
1.2581919254
1.2141778264
1.2196793590
1.2384072095
1.2162721976
1.1969003259
1.2548647002
1.2489927041
1.2234019586
1.2192466658
1.2564711968
1.2281295866
1.2481462426
1.2464693628
1.2518800457
1.2099753320
1.2174569335
1.2338140860
1.2298954281
1.2684921772
1.2279922556
1.2422549842
1.2584895528
1.2208534440
1.2284808797
1.2431640388
1.2104866789
1.2087964944
1.2305117125
1.2245093899
1.1874088420
1.2439142100
1.2437279239
1.2297573157
1.2396400158
1.2640272120
1.2007724802
1.2186047734
1.2366503877
1.2522795005
1.2214839882
1.2153629017
1.2336120343
1.1963324803
1.2182736681
1.1873397085
1.1873380895
1.2082640999
1.2132336434
1.2340526395
1.2483103896
1.1930807606
1.1858211234
1.2507861837
1.2353479638
1.2036818506
1.2047432427
1.2259445569
1.2176528544
1.2026828195
1.2269843145
1.2199350836
1.2350294074
1.2667021942
1.2324057670
1.2409264841
1.2566220393
1.2271767237
1.2386011637
1.2161617278
1.2054733785
1.2191519234
1.1858198418
1.2465836072
1.2473939162
1.2335639916
1.2407290309
1.2606022433
1.2039809620
1.2243424294
1.2405383235
1.2477489213
1.2259454859
1.2193531018
1.2317937293
1.1988835719
1.2161070721
1.1854821881
1.2027097653
1.2130780055
1.2068667083
1.2294135376
1.2485850767
1.1947262256
1.2541843852
1.2367630231
1.2217541038
1.2024309135
1.2082175309
1.2314864704
1.2214832427
1.2046695286
1.2178195024
1.1867239652
1.2437270980
1.2186079806
1.1973826724
1.2507878296
1.2258020053
1.1969771821
1.2024297451
1.1903202324
1.2037322972
1.2070776023
1.2435982979
1.1982687171
1.2528933323
1.2061603388
1.2140288955
1.2240673202
1.2046703786
1.1863151014
1.2140251154
1.2267209462
1.2067339269
1.2063163310
1.2513770053
1.2626867266
1.1972155201
1.2031617687
1.2528822107
1.1947362533
1.2187785405
1.2357747578
1.2467519125
1.1935195092
1.2210741658
1.2095652231
1.2384830164
1.2160649952
1.2249440478
1.1934458436
1.1904773482
1.2499072766
1.1971807747
1.2116436407
1.2621720612
1.2422754182
1.2029120673
1.2346678106
1.2499814336
1.1947928592
1.2162094644
1.2346594130
1.2445355334
1.2298970029
1.1876527718
1.2243950931
1.2303990086
1.2396394793
1.2453358461
1.1867254784
1.2473938512
1.2243450289
1.1934470576
1.2541881902
1.2208836301
1.1934444984
1.2137545279
1.2026822496
1.1872962844
1.2063235867
1.2042981073
1.2475347181
1.1937082551
1.2123840069
1.2216789773
1.2082663613
1.1897177978
1.2086240201
1.2163833623
1.2022049243
1.2085877925
1.2597811910
1.2327746078
1.2538169740
1.1993321761
1.2248859406
1.2307923758
1.1905864790
1.2185054090
1.2396033639
1.2113270308
1.2499934993
1.1934478881
1.1939036687
1.1949344948
1.2120659721
1.2406011490
1.2490727030
1.1967809671
1.2151509775
1.2366568055
1.2450922960
1.2350298208
1.1880235478
1.2264669233
1.2352639027
1.2407285432
1.2497199510
1.2130811478