<VTKFile type="UnstructuredGrid" version="0.1">
	<UnstructuredGrid>
		<Piece NumberOfPoints="1862" NumberOfCells="3498">
			<CellData>
				<DataArray type="Int32" Name="type" NumberOfComponents="1" Format="ascii">
0
0
0
0
0
0
0
0
0
0
0
0
0
0
0
0
1
0
0
1
0
0
0
0
0
0
0
0
0
0
0
0
0
1
0
0
0
0
0
0
0
0
0
0
0
0
0
0
0
0
1
0
0
0
0
0
0
0
0
0
0
1
0
0
0
0
0
0
0
0
0
0
0
0
0
0
0
0
0
0
0
0
0
0
0
0
0
0
0
0
0
0
0
0
0
0
0
0
0
0
0
0
0
0
0
0
0
0
0
0
0
0
0
0
0
0
0
0
0
0
0
0
0
1
0
0
0
0
0
0
0
0
0
0
0
0
0
0
0
0
0
0
0
0
0
0
0
0
0
0
0
1
0
1
1
0
0
0
0
0
0
0
0
0
0
0
0
0
1
0
1
0
0
0
0
1
0
0
0
0
0
0
0
0
1
1
0
0
0
0
0
1
0
0
0
0
0
0
0
0
1
0
0
0
0
0
0
0
0
0
0
0
0
0
0
0
0
0
0
0
0
0
0
0
0
0
0
0
0
0
0
0
0
1
0
0
0
0
0
0
0
0
0
0
0
0
0
0
0
0
0
0
0
0
0
0
0
0
0
0
0
0
0
0
0
0
0
0
0
0
0
0
0
0
0
0
0
0
0
0
0
1
0
0
0
0
0
0
0
0
0
0
0
0
0
0
0
0
0
0
0
0
0
0
0
0
0
0
0
0
0
0
0
0
0
0
0
0
0
0
0
0
0
0
0
0
0
0
0
0
0
0
1
0
0
0
0
0
0
0
0
0
0
0
0
0
0
0
0
0
0
0
0
0
0
0
0
0
0
0
0
0
0
0
0
0
0
0
0
0
0
0
0
0
0
0
0
0
0
0
0
0
0
0
0
0
0
0
0
0
1
0
0
0
0
0
0
0
0
0
0
0
0
0
0
0
0
0
0
0
0
0
0
0
0
0
0
0
0
0
0
0
0
0
0
0
0
0
0
0
0
0
0
0
0
0
0
0
0
0
0
0
0
0
0
0
0
0
0
0
0
0
0
0
0
0
0
0
0
0
0
0
0
0
0
0
0
0
0
0
0
0
0
0
0
0
0
0
0
0
0
0
0
0
0
0
0
0
0
0
0
0
0
0
0
0
0
0
0
0
0
0
0
0
0
0
0
0
0
0
0
0
0
0
0
0
0
0
0
0
0
0
0
1
0
0
0
0
0
0
0
0
0
0
0
0
0
0
0
0
0
0
0
1
0
0
0
0
0
0
0
0
0
0
0
0
0
0
0
0
0
0
0
0
0
0
0
0
0
0
0
0
0
0
0
0
0
0
0
0
0
0
0
0
0
0
0
0
0
0
0
0
0
0
0
0
0
1
0
0
0
0
0
0
0
0
0
0
0
0
0
0
0
0
0
0
0
0
0
0
0
1
0
0
0
0
0
0
0
0
0
0
0
0
0
0
0
0
0
0
0
1
0
0
0
1
0
0
0
0
0
0
0
0
0
0
0
0
0
0
0
0
0
0
0
0
0
0
0
0
0
1
0
0
0
0
0
0
0
1
0
0
0
0
0
0
0
0
0
0
0
0
0
0
0
0
0
0
0
0
0
0
0
0
0
0
1
0
0
0
0
0
0
0
1
0
0
0
0
0
0
1
0
0
0
0
0
0
0
0
0
0
0
0
0
0
0
0
0
0
0
0
0
0
0
0
0
0
0
0
0
0
0
0
0
0
0
0
0
0
1
0
0
0
0
0
1
0
0
0
0
0
0
0
1
0
0
0
0
0
0
0
0
0
0
0
0
0
1
0
0
0
0
0
0
0
0
0
0
0
0
0
0
0
0
0
0
0
0
0
0
0
0
0
0
0
0
0
0
0
0
0
0
0
0
0
0
0
0
0
0
0
0
0
0
0
0
0
0
0
0
0
1
0
0
0
0
0
0
0
0
0
0
0
0
0
0
0
0
0
0
0
1
0
0
0
0
0
0
0
0
0
1
0
0
0
0
0
0
0
0
0
0
0
0
0
0
0
0
0
0
0
0
0
0
0
0
0
0
0
0
0
1
0
1
0
0
0
0
0
0
0
0
0
0
0
0
0
0
0
0
0
0
0
0
0
0
0
0
0
0
0
1
0
0
0
1
0
0
0
0
0
0
0
0
0
0
0
0
0
0
0
0
0
0
0
0
0
0
0
0
0
0
0
0
1
0
0
0
0
0
0
0
0
0
0
0
0
0
0
0
0
0
0
0
0
0
0
0
0
0
1
0
0
0
0
0
0
0
0
0
0
0
0
0
0
0
0
0
0
0
0
0
0
0
1
0
0
0
0
0
0
1
0
0
0
0
0
0
0
0
0
0
0
1
0
0
0
0
0
0
0
0
0
0
0
0
0
0
0
0
0
0
0
0
1
0
0
0
0
0
0
0
0
0
0
0
1
0
0
0
0
0
0
0
0
0
0
0
0
0
0
0
0
0
0
0
0
0
1
0
0
0
0
0
0
0
0
0
1
1
0
1
0
1
0
0
0
0
0
0
0
0
0
0
0
1
0
0
0
0
0
1
1
0
0
0
0
0
0
1
0
0
0
0
0
1
1
1
0
0
0
0
0
0
0
0
0
0
0
0
1
1
0
0
1
0
0
0
0
0
1
0
0
0
1
0
1
0
0
0
0
0
0
0
1
0
0
0
0
0
0
0
1
0
0
1
0
0
0
0
0
0
0
0
0
0
0
0
0
0
0
1
0
0
0
0
0
0
0
0
0
0
0
0
0
0
0
0
0
0
0
0
0
0
0
0
0
0
0
0
0
0
0
0
0
0
0
0
1
0
0
0
0
0
0
1
0
0
0
1
0
0
0
0
0
0
0
0
0
0
0
1
0
0
0
0
0
0
0
0
0
0
0
0
0
0
0
0
0
0
0
0
0
0
0
0
0
0
0
0
0
0
0
0
0
0
0
0
0
0
0
0
1
1
0
0
0
0
0
0
0
0
0
0
0
0
0
1
0
0
0
0
0
0
0
0
0
0
0
0
0
0
0
0
0
0
0
0
0
0
0
0
0
0
0
0
0
0
0
0
0
0
0
0
0
0
0
0
0
0
0
0
0
0
0
0
0
0
0
0
0
0
0
0
0
0
0
0
0
0
0
0
0
0
0
0
0
0
0
0
1
1
0
0
0
0
0
0
0
0
1
0
0
0
0
0
0
0
0
0
0
0
0
0
0
0
0
0
0
0
0
0
0
0
1
0
0
0
0
0
0
0
0
0
0
0
0
0
0
0
0
1
0
0
0
0
0
0
0
0
0
0
0
0
0
0
0
0
0
0
0
0
0
0
0
0
0
0
0
0
0
0
0
0
0
0
0
0
0
0
0
0
0
0
0
0
0
0
0
0
0
0
0
0
0
0
0
0
0
0
0
0
0
0
0
0
0
0
0
0
0
0
0
0
0
0
0
0
0
0
0
0
0
0
0
0
0
0
0
0
0
0
1
1
0
0
0
0
0
1
0
0
0
0
0
0
0
0
0
0
0
0
1
0
0
0
0
0
0
0
0
0
0
0
0
0
0
0
0
0
0
0
0
0
0
0
0
0
0
0
0
0
0
0
0
0
0
0
0
0
0
0
0
0
0
0
0
0
0
0
0
0
0
0
0
0
1
0
1
0
0
0
0
0
0
0
0
0
0
0
0
0
0
0
0
0
0
1
0
0
0
0
0
0
0
0
0
0
0
0
0
0
0
0
0
0
0
0
0
0
0
0
0
0
0
0
0
0
0
0
0
0
0
0
0
0
0
0
0
0
0
0
0
0
0
0
0
0
0
0
0
0
0
0
0
0
0
0
0
0
0
0
0
0
0
0
0
0
1
0
0
0
0
0
0
0
0
0
0
1
0
0
0
0
0
0
0
0
0
0
0
0
0
0
0
0
0
0
0
0
0
0
0
0
0
0
0
0
0
0
0
0
0
0
0
0
0
1
0
0
0
0
0
0
0
0
0
0
0
0
0
0
0
0
0
0
0
0
0
0
0
0
0
0
0
0
0
0
0
0
0
0
0
0
0
0
0
0
0
0
0
0
0
0
0
0
0
0
0
0
0
0
0
0
0
0
0
0
0
0
0
0
0
0
0
0
0
0
0
0
0
0
0
0
0
0
0
0
0
1
0
0
0
0
0
0
0
0
0
0
0
0
0
0
0
0
0
0
0
0
0
0
0
0
0
0
0
0
0
0
0
0
0
0
0
0
0
0
0
0
0
0
0
0
0
0
0
0
0
0
0
0
0
0
0
0
0
0
0
0
0
0
0
0
0
0
0
0
0
0
0
0
0
0
0
0
0
0
0
0
0
0
0
0
0
0
0
0
0
0
0
0
0
0
0
0
0
0
0
0
0
0
0
0
0
0
0
0
0
0
0
0
0
0
0
0
0
0
0
0
0
0
0
1
0
0
0
0
0
0
0
0
0
0
0
0
0
0
0
0
0
0
0
0
0
0
0
0
0
0
0
0
0
0
0
0
0
0
0
0
0
0
0
0
0
0
0
0
0
0
0
0
0
0
0
0
0
0
0
0
0
0
0
0
0
0
0
0
0
0
0
0
0
0
0
0
0
0
0
0
0
0
0
0
0
1
0
0
0
0
0
0
0
1
0
0
0
0
0
0
0
0
0
0
0
0
0
0
0
0
0
0
0
0
0
0
0
0
0
0
0
0
0
0
0
0
0
0
0
0
0
1
0
0
0
0
0
0
0
0
0
0
0
0
0
0
0
0
0
0
0
0
0
1
0
0
0
0
0
0
0
0
0
0
0
0
1
1
0
0
0
0
0
0
0
0
0
0
0
0
0
0
0
1
1
0
1
0
0
0
0
0
0
0
0
0
1
0
0
0
0
0
0
1
0
0
0
0
0
0
0
0
0
0
1
0
0
0
0
1
0
1
0
0
0
0
0
0
0
1
0
0
0
1
0
0
0
1
0
1
1
0
0
1
1
0
0
0
1
0
0
0
1
0
0
0
0
0
0
0
0
0
1
0
0
0
0
0
0
1
0
0
0
0
0
0
0
0
0
0
0
0
0
0
0
0
0
0
0
0
0
0
0
0
0
0
0
1
0
0
1
0
0
0
0
0
0
0
0
0
0
0
0
0
0
0
0
0
0
1
0
0
1
0
0
0
0
0
0
0
0
0
0
0
1
0
0
1
0
0
0
0
0
0
0
0
0
0
0
1
1
0
0
0
0
0
0
0
0
0
0
0
0
1
0
0
0
0
0
0
0
0
0
0
0
0
0
0
0
0
0
1
0
0
0
0
0
0
0
0
0
0
0
0
0
0
0
0
0
1
0
0
0
0
0
0
0
0
0
0
0
0
0
0
0
0
0
0
0
0
0
0
0
0
0
0
0
0
0
0
0
0
0
0
0
0
0
0
0
0
1
0
0
0
0
0
0
0
0
0
0
0
0
0
0
0
0
0
0
0
0
0
0
0
0
0
0
0
0
0
0
0
0
0
0
0
0
0
0
0
0
0
0
0
0
0
1
0
0
0
0
0
0
0
0
0
0
0
0
0
0
0
0
0
0
0
0
0
0
0
0
0
0
0
0
0
0
0
0
0
0
0
0
0
0
0
0
0
0
0
0
0
0
0
1
0
0
0
0
0
0
0
0
0
0
1
0
0
0
0
0
0
0
0
0
0
0
0
0
0
0
1
0
0
1
0
0
0
0
0
0
0
0
0
0
0
0
0
0
0
0
0
0
0
0
0
0
0
1
0
0
0
0
0
0
0
0
0
0
0
0
0
0
0
0
0
0
0
0
0
0
0
0
0
0
0
0
0
0
0
0
0
0
0
1
0
0
0
0
0
0
0
0
0
0
0
0
0
0
0
0
0
0
0
0
0
0
0
0
0
0
0
0
0
0
0
0
0
0
0
0
0
0
0
0
0
0
0
0
0
0
0
0
0
0
0
0
0
0
0
0
0
0
0
0
0
0
0
0
0
0
0
0
0
0
0
0
0
0
0
0
1
0
0
0
0
0
0
0
0
0
0
0
0
0
0
0
0
0
0
0
0
0
0
0
0
0
0
0
0
0
0
0
0
0
0
0
0
0
0
0
1
0
0
0
0
0
0
0
0
0
0
0
0
1
1
0
0
0
0
0
0
0
0
0
0
0
0
0
0
0
0
0
0
0
0
0
0
0
0
0
0
0
0
0
0
0
0
0
0
0
0
0
0
0
0
0
0
0
0
0
0
0
0
0
0
0
0
0
0
0
0
0
0
0
0
0
0
0
0
0
0
0
0
0
0
0
0
0
0
0
0
0
0
0
0
0
0
0
0
0
0
0
0
0
0
0
0
0
0
0
0
0
0
0
0
0
1
0
1
0
0
0
0
0
0
0
1
1
1
1
0
0
0
0
0
0
0
0
0
0
0
0
0
0
0
0
0
0
0
0
0
0
0
0
0
0
0
0
1
1
0
0
0
0
0
0
0
0
0
0
0
0
0
0
0
0
0
0
1
0
0
0
0
0
0
0
1
1
0
1
1
0
0
1
0
0
0
0
0
0
0
1
0
1
0
0
0
0
0
0
0
0
0
0
0
0
0
0
0
0
0
0
0
0
0
0
0
0
0
0
0
1
1
0
0
0
1
1
0
0
0
0
1
0
0
1
0
1
0
0
0
0
0
1
0
0
0
1
0
0
0
0
0
0
0
0
0
0
0
0
0
0
0
0
0
0
0
0
0
0
0
0
0
0
0
1
0
0
0
0
0
0
1
0
0
0
0
0
0
0
0
0
0
0
0
0
0
0
0
0
0
0
0
0
0
0
0
0
0
0
0
0
1
0
1
0
0
0
0
0
0
0
1
0
0
0
0
0
0
0
0
0
0
0
1
0
0
0
0
0
0
0
0
0
1
0
0
0
0
0
0
0
1
0
0
0
0
0
0
0
1
0
0
0
0
0
0
0
0
0
0
0
0
0
0
0
0
0
0
0
1
0
1
0
0
0
0
0
1
0
0
0
0
0
0
0
0
0
0
0
0
0
0
0
0
0
0
0
0
0
0
0
0
0
1
0
1
0
0
0
0
0
0
0
0
0
1
0
0
0
0
0
1
0
0
0
0
0
0
0
0
0
0
0
0
0
0
0
1
0
0
0
0
0
0
0
0
1
0
0
0
0
0
0
0
0
0
0
0
0
0
0
0
0
0
0
0
0
0
0
0
0
0
0
0
0
0
0
1
0
0
0
0
0
0
0
0
0
0
0
0
0
0
0
0
1
0
0
0
0
0
0
0
0
1
0
0
0
0
0
0
0
0
0
1
0
0
0
0
0
1
0
0
0
0
0
0
0
0
0
0
0
0
0
0
0
0
0
0
0
1
0
0
0
0
0
0
1
0
0
0
0
0
0
0
0
1
0
0
0
0
0
0
0
0
0
0
0
0
0
0
1
0
0
1
0
0
0
1
0
0
0
0
0
0
0
0
0
0
0
0
0
0
0
0
1
0
0
0
0
0
0
0
0
0
0
1
0
1
0
0
0
0
0
0
1
0
0
0
0
0
0
0
0
0
0
0
0
0
0
0
0
0
0
0
0
0
0
0
0
0
0
0
1
1
0
0
0
0
0
0
1
0
0
0
0
0
0
0
0
0
0
0
0
0
1
0
0
0
0
0
0
0
1
0
0
0
0
0
0
0
0
0
0
0
0
0
0
0
0
0
0
0
0
0
0
0
0
0
0
0
1
0
0
0
0
0
0
0
0
0
0
1
0
0
1
0
0
0
0
0
0
0
0
0
0
0
0
0
0
0
0
0
0
0
0
0
0
0
0
0
0
0
0
0
1
0
0
0
0
0
0
0
1
0
0
0
0
0
0
0
1
0
0
0
0
1
0
0
0
0
0
0
0
0
0
0
0
1
0
1
0
0
0
1
0
				</DataArray>
				<DataArray type="Float64" Name="h" NumberOfComponents="1" Format="ascii">
1.2152959454
1.2153462073
1.2005341862
1.2101608631
1.2003531743
1.2026516948
1.2060495036
1.2185264053
1.2096733031
1.2285761275
1.2146713687
1.2034024577
1.2223272140
1.2189898445
1.2190739628
1.2326082864
1.2061625527
1.2280840348
1.2177561048
1.2145653705
1.1965177444
1.2224284655
1.2101504267
1.1967342908
1.2102912640
1.2368929810
1.2168955053
1.1985412674
1.2031903030
1.2233651758
1.2186873815
1.2076872175
1.2248364910
1.1995252929
1.1894071797
1.1971744907
1.1920021539
1.2101101487
1.1996824379
1.1953409349
1.2008994923
1.1956603674
1.2146522434
1.2036580725
1.1952969029
1.1990410102
1.2076664536
1.1894178544
1.2047892790
1.2056104454
1.1942570574
1.1982674032
1.2014497484
1.1954383079
1.1940658153
1.2137924902
1.1974667702
1.1880766756
1.1903165633
1.1926393078
1.1878380322
1.1872581843
1.2017026543
1.1962932327
1.2017273978
1.1976244041
1.2060075784
1.2026264251
1.1881760768
1.1875745868
1.1891389690
1.1924186377
1.2098361509
1.1958570031
1.1926238865
1.2005596506
1.1890467232
1.1901655349
1.1878308923
1.2000215208
1.1883773539
1.1975999512
1.2083388638
1.2031695334
1.2015766613
1.2002442121
1.1894315271
1.2035630371
1.1931553434
1.2102506639
1.1930249544
1.1999866971
1.1896243116
1.2114993761
1.2001089671
1.1994693631
1.2038175248
1.2008592686
1.1989480779
1.1905130366
1.2076951038
1.1883039752
1.1999577395
1.1880190649
1.2380799812
1.2064362666
1.2026504956
1.2058544451
1.1915747903
1.1991045874
1.2102073738
1.2092870799
1.1927318595
1.1967586315
1.1995024568
1.1943988182
1.1987662808
1.2326719323
1.1977729003
1.1988644985
1.2359041747
1.2026756352
1.2017655892
1.2371095194
1.1962208475
1.2034698913
1.1980637431
1.2401318704
1.1915213186
1.1968668678
1.1934677399
1.2019485085
1.1972191442
1.1908137554
1.2314001529
1.1954294726
1.2427842455
1.1923772749
1.1890873290
1.2309105473
1.2433945149
1.2338369382
1.1928789347
1.2232120659
1.2013794705
1.1916519081
1.2377314378
1.1976625532
1.2375228468
1.1959422171
1.2447742774
1.1908327600
1.1919766555
1.1916404267
1.1883370049
1.1951703639
1.1921805166
1.2414775038
1.1941453376
1.2456589119
1.2273895738
1.1956734446
1.2404859031
1.2442930035
1.2415807810
1.1994011560
1.2155328012
1.2347512840
1.2409185956
1.1943885230
1.1917086039
1.2433574218
1.1919369086
1.2438891429
1.2122963277
1.1917282581
1.2195928435
1.2031836777
1.1922535983
1.2460436484
1.1972201203
1.2064808146
1.2471388241
1.2033648172
1.2442925995
1.2448994625
1.2089772627
1.1930212132
1.2422248564
1.2451492029
1.2026214861
1.1922604784
1.2470192153
1.2041820236
1.1919859037
1.2030873490
1.2482762225
1.2010498913
1.2014426851
1.1975243779
1.2452276944
1.2050870445
1.2451257795
1.1943136304
1.2020194978
1.2521349357
1.2360336667
1.2467484337
1.2011468616
1.2207167099
1.2027772157
1.2456927000
1.2499724428
1.2534310807
1.2422337805
1.2008660430
1.2286111340
1.2515895785
1.2070884272
1.2495764121
1.2033113007
1.2149961361
1.2132581249
1.2150922768
1.2077272559
1.2033865600
1.2119350202
1.2121702421
1.2053843371
1.2138328785
1.1981042308
1.2154083251
1.2100075596
1.2002493066
1.2064948740
1.2139166591
1.2012858333
1.2330748941
1.2506398853
1.2169555199
1.2006066230
1.2461052960
1.2541498221
1.2167278962
1.2447995708
1.2323608965
1.2529755841
1.2044364756
1.2403158255
1.2528892990
1.2250122065
1.2040736989
1.2515746826
1.2008128494
1.2001290186
1.2556130626
1.2245341893
1.2393047649
1.2534214002
1.2170255189
1.2097514079
1.2106685487
1.2159704532
1.2195895235
1.2101074798
1.2096331769
1.2097763320
1.2049245661
1.2027341388
1.2205289505
1.2183614694
1.2097795675
1.2162921378
1.2144847933
1.2162116969
1.2075289001
1.2134874832
1.2180330268
1.2204421229
1.2075917335
1.2147613494
1.2060679386
1.2063599774
1.2131779513
1.2198435808
1.2170436616
1.2123863206
1.2284124355
1.2544702919
1.2551603721
1.2285887718
1.1994598417
1.2437644668
1.2432303027
1.2115964025
1.1981066656
1.2125028678
1.2366828960
1.2529547762
1.2556045607
1.2568429402
1.2364835761
1.2013738608
1.1987937502
1.2003371561
1.2197335785
1.1999129697
1.2202990177
1.2521940615
1.2138371987
1.2185311063
1.2199414823
1.2091337460
1.2067213170
1.2245165299
1.2217561787
1.2048319449
1.2220330334
1.2167435117
1.2060108383
1.2240867511
1.2134056233
1.2257786880
1.2164563060
1.2171294887
1.2161555855
1.2222760203
1.2131091481
1.2204644461
1.2222860114
1.2209783165
1.2200603504
1.2128310821
1.2099882290
1.2252814280
1.2102736863
1.2255367081
1.2230421957
1.2365683040
1.2045105422
1.1946344310
1.2067683719
1.2547814644
1.1971095160
1.2394958113
1.2217735287
1.2398455750
1.2547778565
1.2414864786
1.2299656256
1.1975362391
1.2395674139
1.2318519069
1.2514012201
1.2434837534
1.2125149088
1.2379143505
1.1951379634
1.2143325306
1.2438946890
1.2415216386
1.2422851366
1.2568356310
1.1974587300
1.1998964153
1.2310775867
1.2215281109
1.2311121995
1.2357385027
1.2567391308
1.2421754352
1.2459364881
1.2514273496
1.2237719803
1.2263759536
1.2285455534
1.2232057498
1.2343730850
1.2302513060
1.2173825151
1.2089875037
1.2274275732
1.2162089374
1.1983572660
1.2307304247
1.2008980219
1.2169481587
1.2226899850
1.2240542175
1.1665593077
1.2200098384
1.2130015759
1.2248258751
1.2168480018
1.2267285686
1.2299497921
1.2276298144
1.1935829901
1.1810235219
1.1884149928
1.2210197661
1.2268345100
1.1758411454
1.2272611246
1.2026079931
1.2201272687
1.2308459180
1.2132989819
1.2200584387
1.1680104243
1.2265642834
1.2261253592
1.2365030129
1.2350908402
1.2155079513
1.2406175106
1.2372154577
1.1993621763
1.2407836239
1.2251791147
1.2275236983
1.2159777538
1.2344502950
1.2417718021
1.2441186282
1.2335514454
1.2332968535
1.2535246216
1.2455962595
1.1946937221
1.2331313490
1.2467740106
1.2437078582
1.2458515351
1.2402574616
1.2378864890
1.2531736425
1.2371500308
1.2353787617
1.2336220234
1.2402181390
1.2501711788
1.2251951266
1.2512843270
1.2411141296
1.2065062563
1.2285147937
1.2469925254
1.2352974854
1.2493621401
1.2476525757
1.2303162447
1.2567330206
1.2211287952
1.1927900440
1.2159821340
1.2514988534
1.2497663778
1.2446720743
1.2517467375
1.2488452421
1.1999408087
1.2059500403
1.2234216380
1.1945073465
1.2308949811
1.2312876867
1.2208485226
1.2032769240
1.2269124182
1.2295723626
1.1904284629
1.2324613246
1.1881467273
1.2120835034
1.2269380397
1.2558875777
1.1643568841
1.2504029572
1.2290317407
1.2188762662
1.2012357072
1.2164129618
1.2269616393
1.2588094595
1.2563608048
1.2322517951
1.2067565934
1.2291938783
1.1817231756
1.2482808662
1.2168656775
1.2583719368
1.2443070503
1.2276225005
1.1713435995
1.1969085147
1.2590167259
1.2319956341
1.2077336348
1.2571060781
1.2558496593
1.1622596647
1.1810240532
1.1884169659
1.1872830824
1.2241664271
1.2549300340
1.2111773040
1.2528039837
1.2067625269
1.1931175365
1.2534974581
1.1904296899
1.2398204036
1.2503971229
1.2513070182
1.2372507012
1.2485700104
1.1855087578
1.1931215958
1.2426614492
1.2448136018
1.2397130501
1.2022371802
1.2528038073
1.2028081729
1.2487581969
1.2304629496
1.1898316548
1.2486659314
1.2059495525
1.2463288587
1.2245446762
1.2269074877
1.2036287439
1.2443003504
1.1969092554
1.2549251583
1.2304659958
1.2012419972
1.1882106887
1.1630609251
1.2529929578
1.1625989839
1.1924555214
1.2165261839
1.1881490188
1.1736664001
1.1722846678
1.2509375974
1.1592428277
1.2134157654
1.2279936892
1.2425355073
1.2363400326
1.1991581973
1.1837850060
1.2497424386
1.2494078214
1.1839286234
1.1958209413
1.2497713902
1.2164103838
1.2172666762
1.2371525347
1.1872845702
1.2312906094
1.2546880787
1.2303327751
1.1824407623
1.2505039879
1.2552861013
1.2521909594
1.2251900078
1.2424382904
1.2161954527
1.2453949809
1.2534999057
1.1809979745
1.1807473586
1.2352946079
1.2571083022
1.1914073186
1.2501478505
1.2140483359
1.2353925555
1.2365015657
1.2285227278
1.1673732967
1.2333138424
1.2116136772
1.1668729968
1.2217959095
1.1608011756
1.2211401553
1.1907406147
1.2481192090
1.2576444955
1.1741264240
1.2183072997
1.1756522771
1.2562692143
1.1899981194
1.2335500273
1.1599917995
1.1883594753
1.2580196263
1.2372220976
1.1758118323
1.1745167927
1.2254584058
1.2576838729
1.1762462512
1.2453960192
1.2017121834
1.2560016748
1.2245412591
1.1824423869
1.1898356902
1.2022364278
1.2495142002
1.2426550175
1.2350163924
1.2485653521
1.1755918193
1.1696317033
1.2620130647
1.2425302944
1.1582058751
1.1883596636
1.1640409335
1.1613412281
1.1991634257
1.1855095919
1.1839313464
1.2134138487
1.2607689583
1.2623473652
1.2589379126
1.2535906460
1.2529892024
1.1788166932
1.2020375780
1.1846100637
1.2568407092
1.2571542671
1.2279954302
1.1642947300
1.2581553846
1.1634982804
1.1752527394
1.2380592116
1.2059543149
1.1625312056
1.1761957027
1.1968658583
1.1924556138
1.2597386680
1.1826005170
1.2452639593
1.2182383035
1.2577033795
1.2614994133
1.2624943653
1.2583062317
1.1703091049
1.1728834879
1.2290833820
1.1934413924
1.2612590588
1.2621015363
1.2036307433
1.1690752775
1.1966087074
1.1600460183
1.2615264503
1.1589549541
1.1562970224
1.2654291102
1.2644069337
1.1668508471
1.1620882217
1.2625827157
1.1599114164
1.1605952866
1.1594877507
1.2637945529
1.2647050193
1.2645028915
1.1581342415
1.1635305328
1.1637412917
1.1695294841
1.1629140514
1.2633953342
1.2645554420
1.2598273530
1.2618657489
1.1653004504
1.2654525773
1.2662247314
1.1742211408
1.2623448832
1.2609069608
1.1758066500
1.2668481764
1.1592412363
1.2639894495
1.1819213350
1.1699429571
1.2668538515
1.1762418207
1.2656920070
1.2640024575
1.1958186860
1.2624069397
1.1958289106
1.1907516950
1.2613034710
1.2610427286
1.2221218737
1.2102428653
1.2077014404
1.2077382637
1.2102939971
1.2073669669
1.2033940942
1.2146522541
1.2141223748
1.2026435264
1.2026324767
1.2003717170
1.2026744267
1.2097012497
1.2190409612
1.2060280083
1.2236155292
1.2141491573
1.2073834178
1.2240625081
1.2280686676
1.2101768896
1.2005457703
1.2176971237
1.2233540787
1.2302307059
1.2027271382
1.2185537683
1.2368942641
1.2102818061
1.2285883033
1.2252899838
1.2223687680
1.1977297657
1.2292664150
1.2148867501
1.2236317633
1.2186808180
1.2240946179
1.1995234210
1.2247944380
1.2076259667
1.2214179292
1.1953328909
1.2006584145
1.2061645360
1.2326246618
1.2145868933
1.1996637115
1.2027317350
1.2302471589
1.2008681716
1.2190026699
1.2145696769
1.1977376953
1.2102220612
1.1901036886
1.2224767111
1.1928096859
1.2253322018
1.1965218245
1.2149558298
1.2175546070
1.1971040071
1.1894139584
1.2292897106
1.1952843894
1.1942533381
1.2075948580
1.1985615105
1.1967473992
1.2032365895
1.1974435210
1.2028139585
1.2169519429
1.1911649266
1.2324543493
1.2006773646
1.1941824172
1.1893922727
1.2214624165
1.2014042218
1.1901091228
1.2068779240
1.2007303141
1.2176219471
1.1928152677
1.1925892279
1.1971177682
1.1971943619
1.2016804627
1.2101785963
1.1906729164
1.1894109016
1.2016791890
1.2025982154
1.1958887465
1.1920058021
1.1962759469
1.1941924712
1.1894468150
1.1906560089
1.2037156034
1.1958387478
1.1938099964
1.1924105215
1.2097870947
1.1876257196
1.2046032849
1.2040339877
1.1911703702
1.1877637460
1.1893956370
1.1956743973
1.1890415539
1.1891326357
1.1943699116
1.1926106931
1.2028475506
1.2076394232
1.1881720921
1.1904912971
1.2324653347
1.1875713278
1.1925981225
1.1906794749
1.1987546501
1.1959005175
1.2015183193
1.1920151301
1.2073716315
1.2048204833
1.1982943262
1.2007564731
1.1990709765
1.1975956812
1.2031459669
1.1952585630
1.2069107844
1.2056426701
1.1878420151
1.1872616177
1.2076972097
1.1887263244
1.1943870577
1.1903251669
1.1913038482
1.1938202936
1.2010537140
1.2074609983
1.1894522891
1.1904948471
1.1930926580
1.1940775040
1.1891098509
1.1876284919
1.1877681976
1.2138429745
1.1964407492
1.1913390923
1.2046316610
1.1954489211
1.1906638070
1.1926493309
1.1999929609
1.1880802113
1.2040780171
1.1896175567
1.2015432934
1.1880157379
1.1989417322
1.1952651584
1.2032958700
1.1920224534
1.1882994981
1.2076188380
1.1908383111
1.2021088532
1.1976322051
1.2076636219
1.2060342093
1.1879821766
1.2008524805
1.1876354300
1.1994726592
1.1940309446
1.2074026051
1.1905077649
1.2064203670
1.1987568903
1.2055062298
1.1964461857
1.1915645855
1.2092459380
1.1887313245
1.1913502751
1.1927200515
1.1931000316
1.2005490708
1.2120426770
1.1913121618
1.1901730122
1.2074980578
1.1915064013
1.2010491863
1.2101661714
1.1991030391
1.1891152586
1.1908451276
1.2055274945
1.1967179601
1.1876394321
1.2002346483
1.2026691093
1.1949084476
1.1879850370
1.2369947359
1.1940383881
1.2021265262
1.2015804406
1.2000199565
1.1894357067
1.2083673954
1.1883814677
1.1987551785
1.1878337828
1.2076432550
1.2359081929
1.2035741086
1.2033099170
1.1915122904
1.2019558114
1.2104499971
1.2399890847
1.2034436380
1.1934835200
1.1949232928
1.1931680458
1.2001040206
1.2115394126
1.1982212480
1.2102892623
1.1930335627
1.2003260161
1.1872269668
1.1962009933
1.1980447670
1.2120789075
1.1968561405
1.1999648273
1.2016746675
1.2119527434
1.1967286281
1.2369918986
1.1949241805
1.1995110951
1.2314010032
1.1954188865
1.1971995671
1.2380747164
1.2038165874
1.2013905175
1.2100972559
1.2338421598
1.1979370354
1.2399816335
1.1982340622
1.1967740172
1.2058850643
1.2396656468
1.1872295910
1.1949358996
1.1995200990
1.2375309781
1.2104846922
1.1928721762
1.2388642812
1.1944036947
1.1934970478
1.1916470270
1.2003447566
1.2026385824
1.2350927068
1.2010257620
1.2111025053
1.1915377465
1.2016925942
1.1995320865
1.2458129190
1.1911603951
1.2041826325
1.1893150130
1.1988865127
1.2119812639
1.1908287091
1.2326720139
1.1904428614
1.1977872745
1.2277766257
1.2447916432
1.1919725936
1.1883331827
1.2396584194
1.2388558236
1.2347499342
1.2415918927
1.1979598980
1.1940048583
1.2350862079
1.2415784847
1.1978694512
1.2087295478
1.2101214599
1.2371021950
1.1915256056
1.2273696380
1.2385824562
1.2017497552
1.1934744223
1.2268980072
1.2404959339
1.1902676514
1.1956680408
1.2401220429
1.1941408571
1.1893184686
1.2427747877
1.1908174926
1.1930006912
1.2085105167
1.2042062146
1.1937886383
1.1923808299
1.1919328419
1.2233808181
1.2435966580
1.1890910518
1.2277786184
1.2111178759
1.2457948351
1.1915416562
1.2010132306
1.1904465457
1.1943823725
1.1899708893
1.1911644769
1.1917043678
1.2439030244
1.1959470411
1.2471506883
1.2064392472
1.2385739199
1.2415672310
1.2021439061
1.1927965659
1.1930489138
1.2232478833
1.1976698306
1.2377296802
1.2460570097
1.1978767098
1.2268978807
1.2087335311
1.2478860909
1.2433824723
1.1972109984
1.1902714874
1.2195607272
1.1892062187
1.2309288967
1.1940087258
1.2447876197
1.2422352337
1.1951753424
1.1921846413
1.2435784906
1.2069436047
1.1930048316
1.2311711460
1.2233801909
1.2085140926
1.2443030490
1.1937929059
1.1916439612
1.2414641821
1.1899746466
1.2089478788
1.2048549114
1.1919804572
1.2155726423
1.2447758361
1.2021601539
1.2030751416
1.2478734001
1.1930530487
1.1892099088
1.1996854278
1.2449595484
1.1928003085
1.2064348532
1.2434224162
1.1922549884
1.1900388202
1.2442795343
1.1994123388
1.2041699652
1.2005559015
1.2456471750
1.2051044076
1.1930265308
1.2433467521
1.2451372472
1.2123267935
1.1943082347
1.2069347632
1.2409093259
1.2452391357
1.2311663299
1.2014453457
1.1938881198
1.1922589111
1.2463469171
1.2449482048
1.2434110310
1.2457042427
1.2005616986
1.1996963371
1.2494623693
1.2058904936
1.2064980411
1.1900426847
1.1917336562
1.2048415887
1.2476617410
1.2467047220
1.2031951584
1.2499856627
1.2011565353
1.2026240695
1.1980996475
1.1930320596
1.2451379224
1.1938938925
1.1958860532
1.1958201054
1.2033497426
1.2448880990
1.1930266448
1.2033241838
1.2529866506
1.2323596688
1.2480368355
1.2448154780
1.2010439537
1.2466934505
1.2016676986
1.2481540263
1.2167082445
1.2498271025
1.2463313658
1.2012868654
1.2470075772
1.2491426472
1.2059111784
1.2482615916
1.2519723345
1.2393144991
1.2488986246
1.2008172197
1.2245203836
1.2515879492
1.2044296514
1.2476506845
1.2506504568
1.2494501135
1.2004434171
1.2029809877
1.2020116278
1.1958924962
1.2170062372
1.2097635875
1.1958256958
1.2161956261
1.2076083565
1.2063506551
1.2147201218
1.2094247107
1.2123954626
1.2049346234
1.2162497100
1.1975299929
1.2169969632
1.2101244533
1.2027299544
1.2124638922
1.2096124094
1.2144823274
1.2027809739
1.2285887318
1.2502636973
1.2495648201
1.2124919467
1.1994604866
1.2498117795
1.2016617764
1.2480206937
1.2507250911
1.2020207185
1.2432448610
1.2544805448
1.2481422347
1.2207402816
1.2467332363
1.2360331932
1.2521237017
1.2071033090
1.2364925085
1.2522068433
1.2491318487
1.2202908073
1.2013713411
1.2515767826
1.2008622495
1.2003379469
1.2485035256
1.2544790867
1.2286249643
1.2488828873
1.2422237877
1.2519622253
1.2154464057
1.2060029633
1.2040036450
1.2102830168
1.2161717375
1.2204621972
1.2099932364
1.2124970261
1.2065042486
1.2130919473
1.2053719695
1.2002548316
1.2161052246
1.2222602660
1.2209391890
1.2132816036
1.2004501413
1.2138779497
1.2139234104
1.2151174394
1.2067215076
1.2134216836
1.2185403003
1.2217415184
1.2077094932
1.2119714637
1.2094479421
1.2091273550
1.2029772945
1.2033887794
1.2164268565
1.2219987048
1.2190708945
1.2150415757
1.2121631565
1.2230429750
1.2492117655
1.2541392909
1.2507134289
1.2547906479
1.2330734460
1.2006076084
1.2024545109
1.2398577029
1.2020203916
1.2460906953
1.2067629774
1.1971081136
1.2169695614
1.2502488976
1.2318592136
1.2514128996
1.2544700508
1.2562221984
1.2403057066
1.2040808487
1.1998918700
1.2464511842
1.2001271781
1.2484883783
1.2143283682
1.1974568507
1.2250206587
1.2528765784
1.2132951075
1.2180270712
1.2200698594
1.2060738410
1.2075239497
1.2268068542
1.2204672209
1.2008943303
1.2198864413
1.2191087230
1.2226855332
1.2201045091
1.2054656224
1.2097644525
1.2248330260
1.2134693971
1.2272495574
1.2131971241
1.2169529775
1.2159551387
1.2227023436
1.2097831871
1.2040083049
1.2254078187
1.2195990025
1.2205656532
1.2184032806
1.2231762333
1.2161975633
1.2089770936
1.2263742270
1.2106548344
1.2274069267
1.2161383062
1.2406086020
1.2331233304
1.2034018229
1.2407835576
1.2284102162
1.2491978979
1.2390287189
1.2443257808
1.1993598808
1.2345343630
1.1946900065
1.2116038357
1.2428849390
1.2417680521
1.2420089100
1.2551508715
1.1981080995
1.2024624471
1.2344588517
1.2155088682
1.2437511570
1.2261173558
1.2273119950
1.2378839392
1.2535323156
1.2396129599
1.2444844803
1.2463643368
1.2397187798
1.2297531742
1.1999336863
1.2387531533
1.2366737997
1.2529428250
1.2366466100
1.2452671787
1.2065045618
1.2373270005
1.1927880609
1.2197379286
1.2448456430
1.2402952303
1.2397020060
1.2562145257
1.1999163842
1.1987956630
1.2424839910
1.2252000504
1.2464378310
1.2215243352
1.2316800856
1.2352479923
1.2568002098
1.2414598108
1.2446390952
1.2488547274
1.1678843382
1.2269397583
1.2077407447
1.2252915214
1.2099654698
1.2288921076
1.2292010848
1.2200856709
1.2290375947
1.2247153043
1.1889437116
1.2322367325
1.1817225623
1.1804884340
1.2168532427
1.2254389475
1.2099936431
1.1820579752
1.2255667248
1.2096624095
1.2128381601
1.1945052685
1.2319940475
1.2048384080
1.2171184831
1.2222644028
1.1619668953
1.2241659840
1.1622606178
1.2234060085
1.2120697711
1.2240844915
1.2183041187
1.2295501536
1.2308993297
1.2227181670
1.2373480424
1.2324149105
1.1892516084
1.2312922407
1.1767366230
1.1878157919
1.2208408450
1.2245506342
1.2054770888
1.1741254052
1.2258002835
1.2032742637
1.2167582395
1.2324527377
1.2138343496
1.2199268020
1.1643565869
1.2269435838
1.2260666637
1.2518505226
1.2353917771
1.2345837911
1.2372464229
1.2345416893
1.2426564996
1.2478632581
1.2217715210
1.2385187871
1.2504426780
1.2355087490
1.2385083999
1.2378040594
1.2045135809
1.2397765234
1.2252235961
1.2273176632
1.2327690077
1.2165494785
1.2438383777
1.2394855225
1.2402976099
1.2420190859
1.2329326525
1.2497384982
1.2397755573
1.2486629331
1.2304620456
1.2547697558
1.2168224936
1.2444875244
1.1946371691
1.2215344649
1.2275191404
1.2509306540
1.2494017659
1.2327749826
1.2463248771
1.2485740546
1.2428868497
1.2443321990
1.2521151697
1.2463528689
1.2034147151
1.2396178442
1.2372422528
1.2441093782
1.2299751050
1.2521349894
1.2357594722
1.2455938399
1.2329191631
1.2328028418
1.2311188355
1.2393523749
1.2493091028
1.2310709001
1.2390411742
1.2521760085
1.2366509575
1.2420244687
1.2125165725
1.2415235947
1.2283288910
1.2224169080
1.2224125678
1.2460562223
1.2424738477
1.2414938131
1.2434918563
1.2344417858
1.2483389017
1.2468052878
1.2271022391
1.2567939885
1.2214417840
1.2402520106
1.2438968041
1.1951402448
1.2165550609
1.2495063909
1.2484444847
1.2357445311
1.2438764813
1.2472148648
1.2414627353
1.2446436440
1.2530600894
1.2514170278
1.1975426409
1.2373331815
1.2395680215
1.2130009633
1.2200191231
1.2576805419
1.2562644290
1.2313120575
1.1983600085
1.2188698647
1.2299506079
1.1767386768
1.2505023801
1.2308888483
1.2210205723
1.2026108312
1.2576394966
1.2414918827
1.2247079592
1.2331059087
1.2267517596
1.1630399588
1.1956064916
1.2581513933
1.2308616813
1.2027037875
1.2553830794
1.2562128597
1.1678852437
1.1935816698
1.1949738186
1.1949763149
1.1891700233
1.2130132313
1.2265561047
1.2545369573
1.1680112817
1.1951269282
1.2526606673
1.2343685250
1.2161869451
1.2498934146
1.2148426813
1.1949353899
1.1970533014
1.2186248507
1.2545099107
1.2233182440
1.2237913127
1.2580159961
1.2553525926
1.2302721821
1.2142275886
1.2285399107
1.1892530232
1.2474924538
1.2173898935
1.1951289851
1.2568352639
1.2480107431
1.2324084881
1.2364260783
1.2289156649
1.1668732569
1.2033192735
1.2580520419
1.2307390393
1.2148351884
1.2563999105
1.2549832296
1.1665590612
1.1889419938
1.1878175089
1.1699494924
1.1905831256
1.2077528333
1.2240486494
1.2552002284
1.1619663862
1.2558292214
1.2373433809
1.2014875629
1.2062426888
1.2522558419
1.2256513477
1.2027078641
1.1913068912
1.2526581805
1.2122633631
1.2414839719
1.1956075011
1.2378068083
1.2526542810
1.2504458224
1.2336256395
1.2062520943
1.1813373818
1.2363624553
1.1654854745
1.2452426325
1.1598187629
1.2478772773
1.1810307603
1.2418427138
1.2140436269
1.1913109154
1.1804582443
1.2418482394
1.2352517433
1.2438419221
1.1670300398
1.2402920975
1.2366612282
1.2398182827
1.2215325220
1.2478839518
1.1594279625
1.1947048818
1.2518541478
1.2402992776
1.2357487792
1.2073938296
1.2260575874
1.2344858042
1.2478668706
1.2421798248
1.2282742755
1.2303062332
1.2458460474
1.2102876231
1.1861491101
1.2365835875
1.2532770435
1.2316858020
1.2477428634
1.2524909213
1.1933992200
1.1914623824
1.2477455268
1.2485856913
1.2129996627
1.2106514288
1.2455252299
1.2172916070
1.2330994947
1.2459399560
1.2056304347
1.2480029612
1.2033196247
1.2331728041
1.2558243679
1.2493124556
1.2282779143
1.2487550644
1.1970600465
1.1893292229
1.2402229054
1.1611291120
1.2511429468
1.1620893524
1.1860609250
1.2106999053
1.1891719842
1.1738385879
1.2350846145
1.2446767480
1.2411173341
1.1699487208
1.2422952012
1.2528001685
1.2485814401
1.1574965706
1.2056517597
1.2512875727
1.2300182517
1.2043113440
1.2376823938
1.2460599543
1.2524846639
1.2331705043
1.2374149021
1.2048622469
1.1819278690
1.2521392696
1.2517527315
1.1849597536
1.1932636270
1.2493654129
1.2521202594
1.2233144040
1.2195558709
1.2476558993
1.2282617344
1.2364195682
1.2357660473
1.1905845369