<VTKFile type="UnstructuredGrid" version="0.1">
	<UnstructuredGrid>
		<Piece NumberOfPoints="1862" NumberOfCells="3498">
			<CellData>
				<DataArray type="Int32" Name="type" NumberOfComponents="1" Format="ascii">
0
0
0
0
0
0
0
0
0
0
0
0
0
0
0
0
1
0
0
1
0
0
0
0
0
0
0
0
0
0
0
0
0
1
0
0
0
0
0
0
0
0
0
0
0
0
0
0
0
0
1
0
0
0
0
0
0
0
0
0
0
1
0
0
0
0
0
0
0
0
0
0
0
0
0
0
0
0
0
0
0
0
0
0
0
0
0
0
0
0
0
0
0
0
0
0
0
0
0
0
0
0
0
0
0
0
0
0
0
0
0
0
0
0
0
0
0
0
0
0
0
0
0
1
0
0
0
0
0
0
0
0
0
0
0
0
0
0
0
0
0
0
0
0
0
0
0
0
0
0
0
1
0
1
1
0
0
0
0
0
0
0
0
0
0
0
0
0
1
0
1
0
0
0
0
1
0
0
0
0
0
0
0
0
1
1
0
0
0
0
0
1
0
0
0
0
0
0
0
0
1
0
0
0
0
0
0
0
0
0
0
0
0
0
0
0
0
0
0
0
0
0
0
0
0
0
0
0
0
0
0
0
0
1
0
0
0
0
0
0
0
0
0
0
0
0
0
0
0
0
0
0
0
0
0
0
0
0
0
0
0
0
0
0
0
0
0
0
0
0
0
0
0
0
0
0
0
0
0
0
0
1
0
0
0
0
0
0
0
0
0
0
0
0
0
0
0
0
0
0
0
0
0
0
0
0
0
0
0
0
0
0
0
0
0
0
0
0
0
0
0
0
0
0
0
0
0
0
0
0
0
0
1
0
0
0
0
0
0
0
0
0
0
0
0
0
0
0
0
0
0
0
0
0
0
0
0
0
0
0
0
0
0
0
0
0
0
0
0
0
0
0
0
0
0
0
0
0
0
0
0
0
0
0
0
0
0
0
0
0
1
0
0
0
0
0
0
0
0
0
0
0
0
0
0
0
0
0
0
0
0
0
0
0
0
0
0
0
0
0
0
0
0
0
0
0
0
0
0
0
0
0
0
0
0
0
0
0
0
0
0
0
0
0
0
0
0
0
0
0
0
0
0
0
0
0
0
0
0
0
0
0
0
0
0
0
0
0
0
0
0
0
0
0
0
0
0
0
0
0
0
0
0
0
0
0
0
0
0
0
0
0
0
0
0
0
0
0
0
0
0
0
0
0
0
0
0
0
0
0
0
0
0
0
0
0
0
0
0
0
0
0
0
1
0
0
0
0
0
0
0
0
0
0
0
0
0
0
0
0
0
0
0
1
0
0
0
0
0
0
0
0
0
0
0
0
0
0
0
0
0
0
0
0
0
0
0
0
0
0
0
0
0
0
0
0
0
0
0
0
0
0
0
0
0
0
0
0
0
0
0
0
0
0
0
0
0
1
0
0
0
0
0
0
0
0
0
0
0
0
0
0
0
0
0
0
0
0
0
0
0
1
0
0
0
0
0
0
0
0
0
0
0
0
0
0
0
0
0
0
0
1
0
0
0
1
0
0
0
0
0
0
0
0
0
0
0
0
0
0
0
0
0
0
0
0
0
0
0
0
0
1
0
0
0
0
0
0
0
1
0
0
0
0
0
0
0
0
0
0
0
0
0
0
0
0
0
0
0
0
0
0
0
0
0
0
1
0
0
0
0
0
0
0
1
0
0
0
0
0
0
1
0
0
0
0
0
0
0
0
0
0
0
0
0
0
0
0
0
0
0
0
0
0
0
0
0
0
0
0
0
0
0
0
0
0
0
0
0
0
1
0
0
0
0
0
1
0
0
0
0
0
0
0
1
0
0
0
0
0
0
0
0
0
0
0
0
0
1
0
0
0
0
0
0
0
0
0
0
0
0
0
0
0
0
0
0
0
0
0
0
0
0
0
0
0
0
0
0
0
0
0
0
0
0
0
0
0
0
0
0
0
0
0
0
0
0
0
0
0
0
0
1
0
0
0
0
0
0
0
0
0
0
0
0
0
0
0
0
0
0
0
1
0
0
0
0
0
0
0
0
0
1
0
0
0
0
0
0
0
0
0
0
0
0
0
0
0
0
0
0
0
0
0
0
0
0
0
0
0
0
0
1
0
1
0
0
0
0
0
0
0
0
0
0
0
0
0
0
0
0
0
0
0
0
0
0
0
0
0
0
0
1
0
0
0
1
0
0
0
0
0
0
0
0
0
0
0
0
0
0
0
0
0
0
0
0
0
0
0
0
0
0
0
0
1
0
0
0
0
0
0
0
0
0
0
0
0
0
0
0
0
0
0
0
0
0
0
0
0
0
1
0
0
0
0
0
0
0
0
0
0
0
0
0
0
0
0
0
0
0
0
0
0
0
1
0
0
0
0
0
0
1
0
0
0
0
0
0
0
0
0
0
0
1
0
0
0
0
0
0
0
0
0
0
0
0
0
0
0
0
0
0
0
0
1
0
0
0
0
0
0
0
0
0
0
0
1
0
0
0
0
0
0
0
0
0
0
0
0
0
0
0
0
0
0
0
0
0
1
0
0
0
0
0
0
0
0
0
1
1
0
1
0
1
0
0
0
0
0
0
0
0
0
0
0
1
0
0
0
0
0
1
1
0
0
0
0
0
0
1
0
0
0
0
0
1
1
1
0
0
0
0
0
0
0
0
0
0
0
0
1
1
0
0
1
0
0
0
0
0
1
0
0
0
1
0
1
0
0
0
0
0
0
0
1
0
0
0
0
0
0
0
1
0
0
1
0
0
0
0
0
0
0
0
0
0
0
0
0
0
0
1
0
0
0
0
0
0
0
0
0
0
0
0
0
0
0
0
0
0
0
0
0
0
0
0
0
0
0
0
0
0
0
0
0
0
0
0
1
0
0
0
0
0
0
1
0
0
0
1
0
0
0
0
0
0
0
0
0
0
0
1
0
0
0
0
0
0
0
0
0
0
0
0
0
0
0
0
0
0
0
0
0
0
0
0
0
0
0
0
0
0
0
0
0
0
0
0
0
0
0
0
1
1
0
0
0
0
0
0
0
0
0
0
0
0
0
1
0
0
0
0
0
0
0
0
0
0
0
0
0
0
0
0
0
0
0
0
0
0
0
0
0
0
0
0
0
0
0
0
0
0
0
0
0
0
0
0
0
0
0
0
0
0
0
0
0
0
0
0
0
0
0
0
0
0
0
0
0
0
0
0
0
0
0
0
0
0
0
0
1
1
0
0
0
0
0
0
0
0
1
0
0
0
0
0
0
0
0
0
0
0
0
0
0
0
0
0
0
0
0
0
0
0
1
0
0
0
0
0
0
0
0
0
0
0
0
0
0
0
0
1
0
0
0
0
0
0
0
0
0
0
0
0
0
0
0
0
0
0
0
0
0
0
0
0
0
0
0
0
0
0
0
0
0
0
0
0
0
0
0
0
0
0
0
0
0
0
0
0
0
0
0
0
0
0
0
0
0
0
0
0
0
0
0
0
0
0
0
0
0
0
0
0
0
0
0
0
0
0
0
0
0
0
0
0
0
0
0
0
0
0
1
1
0
0
0
0
0
1
0
0
0
0
0
0
0
0
0
0
0
0
1
0
0
0
0
0
0
0
0
0
0
0
0
0
0
0
0
0
0
0
0
0
0
0
0
0
0
0
0
0
0
0
0
0
0
0
0
0
0
0
0
0
0
0
0
0
0
0
0
0
0
0
0
0
1
0
1
0
0
0
0
0
0
0
0
0
0
0
0
0
0
0
0
0
0
1
0
0
0
0
0
0
0
0
0
0
0
0
0
0
0
0
0
0
0
0
0
0
0
0
0
0
0
0
0
0
0
0
0
0
0
0
0
0
0
0
0
0
0
0
0
0
0
0
0
0
0
0
0
0
0
0
0
0
0
0
0
0
0
0
0
0
0
0
0
0
1
0
0
0
0
0
0
0
0
0
0
1
0
0
0
0
0
0
0
0
0
0
0
0
0
0
0
0
0
0
0
0
0
0
0
0
0
0
0
0
0
0
0
0
0
0
0
0
0
1
0
0
0
0
0
0
0
0
0
0
0
0
0
0
0
0
0
0
0
0
0
0
0
0
0
0
0
0
0
0
0
0
0
0
0
0
0
0
0
0
0
0
0
0
0
0
0
0
0
0
0
0
0
0
0
0
0
0
0
0
0
0
0
0
0
0
0
0
0
0
0
0
0
0
0
0
0
0
0
0
0
1
0
0
0
0
0
0
0
0
0
0
0
0
0
0
0
0
0
0
0
0
0
0
0
0
0
0
0
0
0
0
0
0
0
0
0
0
0
0
0
0
0
0
0
0
0
0
0
0
0
0
0
0
0
0
0
0
0
0
0
0
0
0
0
0
0
0
0
0
0
0
0
0
0
0
0
0
0
0
0
0
0
0
0
0
0
0
0
0
0
0
0
0
0
0
0
0
0
0
0
0
0
0
0
0
0
0
0
0
0
0
0
0
0
0
0
0
0
0
0
0
0
0
0
1
0
0
0
0
0
0
0
0
0
0
0
0
0
0
0
0
0
0
0
0
0
0
0
0
0
0
0
0
0
0
0
0
0
0
0
0
0
0
0
0
0
0
0
0
0
0
0
0
0
0
0
0
0
0
0
0
0
0
0
0
0
0
0
0
0
0
0
0
0
0
0
0
0
0
0
0
0
0
0
0
0
1
0
0
0
0
0
0
0
1
0
0
0
0
0
0
0
0
0
0
0
0
0
0
0
0
0
0
0
0
0
0
0
0
0
0
0
0
0
0
0
0
0
0
0
0
0
1
0
0
0
0
0
0
0
0
0
0
0
0
0
0
0
0
0
0
0
0
0
1
0
0
0
0
0
0
0
0
0
0
0
0
1
1
0
0
0
0
0
0
0
0
0
0
0
0
0
0
0
1
1
0
1
0
0
0
0
0
0
0
0
0
1
0
0
0
0
0
0
1
0
0
0
0
0
0
0
0
0
0
1
0
0
0
0
1
0
1
0
0
0
0
0
0
0
1
0
0
0
1
0
0
0
1
0
1
1
0
0
1
1
0
0
0
1
0
0
0
1
0
0
0
0
0
0
0
0
0
1
0
0
0
0
0
0
1
0
0
0
0
0
0
0
0
0
0
0
0
0
0
0
0
0
0
0
0
0
0
0
0
0
0
0
1
0
0
1
0
0
0
0
0
0
0
0
0
0
0
0
0
0
0
0
0
0
1
0
0
1
0
0
0
0
0
0
0
0
0
0
0
1
0
0
1
0
0
0
0
0
0
0
0
0
0
0
1
1
0
0
0
0
0
0
0
0
0
0
0
0
1
0
0
0
0
0
0
0
0
0
0
0
0
0
0
0
0
0
1
0
0
0
0
0
0
0
0
0
0
0
0
0
0
0
0
0
1
0
0
0
0
0
0
0
0
0
0
0
0
0
0
0
0
0
0
0
0
0
0
0
0
0
0
0
0
0
0
0
0
0
0
0
0
0
0
0
0
1
0
0
0
0
0
0
0
0
0
0
0
0
0
0
0
0
0
0
0
0
0
0
0
0
0
0
0
0
0
0
0
0
0
0
0
0
0
0
0
0
0
0
0
0
0
1
0
0
0
0
0
0
0
0
0
0
0
0
0
0
0
0
0
0
0
0
0
0
0
0
0
0
0
0
0
0
0
0
0
0
0
0
0
0
0
0
0
0
0
0
0
0
0
1
0
0
0
0
0
0
0
0
0
0
1
0
0
0
0
0
0
0
0
0
0
0
0
0
0
0
1
0
0
1
0
0
0
0
0
0
0
0
0
0
0
0
0
0
0
0
0
0
0
0
0
0
0
1
0
0
0
0
0
0
0
0
0
0
0
0
0
0
0
0
0
0
0
0
0
0
0
0
0
0
0
0
0
0
0
0
0
0
0
1
0
0
0
0
0
0
0
0
0
0
0
0
0
0
0
0
0
0
0
0
0
0
0
0
0
0
0
0
0
0
0
0
0
0
0
0
0
0
0
0
0
0
0
0
0
0
0
0
0
0
0
0
0
0
0
0
0
0
0
0
0
0
0
0
0
0
0
0
0
0
0
0
0
0
0
0
1
0
0
0
0
0
0
0
0
0
0
0
0
0
0
0
0
0
0
0
0
0
0
0
0
0
0
0
0
0
0
0
0
0
0
0
0
0
0
0
1
0
0
0
0
0
0
0
0
0
0
0
0
1
1
0
0
0
0
0
0
0
0
0
0
0
0
0
0
0
0
0
0
0
0
0
0
0
0
0
0
0
0
0
0
0
0
0
0
0
0
0
0
0
0
0
0
0
0
0
0
0
0
0
0
0
0
0
0
0
0
0
0
0
0
0
0
0
0
0
0
0
0
0
0
0
0
0
0
0
0
0
0
0
0
0
0
0
0
0
0
0
0
0
0
0
0
0
0
0
0
0
0
0
0
0
1
0
1
0
0
0
0
0
0
0
1
1
1
1
0
0
0
0
0
0
0
0
0
0
0
0
0
0
0
0
0
0
0
0
0
0
0
0
0
0
0
0
1
1
0
0
0
0
0
0
0
0
0
0
0
0
0
0
0
0
0
0
1
0
0
0
0
0
0
0
1
1
0
1
1
0
0
1
0
0
0
0
0
0
0
1
0
1
0
0
0
0
0
0
0
0
0
0
0
0
0
0
0
0
0
0
0
0
0
0
0
0
0
0
0
1
1
0
0
0
1
1
0
0
0
0
1
0
0
1
0
1
0
0
0
0
0
1
0
0
0
1
0
0
0
0
0
0
0
0
0
0
0
0
0
0
0
0
0
0
0
0
0
0
0
0
0
0
0
1
0
0
0
0
0
0
1
0
0
0
0
0
0
0
0
0
0
0
0
0
0
0
0
0
0
0
0
0
0
0
0
0
0
0
0
0
1
0
1
0
0
0
0
0
0
0
1
0
0
0
0
0
0
0
0
0
0
0
1
0
0
0
0
0
0
0
0
0
1
0
0
0
0
0
0
0
1
0
0
0
0
0
0
0
1
0
0
0
0
0
0
0
0
0
0
0
0
0
0
0
0
0
0
0
1
0
1
0
0
0
0
0
1
0
0
0
0
0
0
0
0
0
0
0
0
0
0
0
0
0
0
0
0
0
0
0
0
0
1
0
1
0
0
0
0
0
0
0
0
0
1
0
0
0
0
0
1
0
0
0
0
0
0
0
0
0
0
0
0
0
0
0
1
0
0
0
0
0
0
0
0
1
0
0
0
0
0
0
0
0
0
0
0
0
0
0
0
0
0
0
0
0
0
0
0
0
0
0
0
0
0
0
1
0
0
0
0
0
0
0
0
0
0
0
0
0
0
0
0
1
0
0
0
0
0
0
0
0
1
0
0
0
0
0
0
0
0
0
1
0
0
0
0
0
1
0
0
0
0
0
0
0
0
0
0
0
0
0
0
0
0
0
0
0
1
0
0
0
0
0
0
1
0
0
0
0
0
0
0
0
1
0
0
0
0
0
0
0
0
0
0
0
0
0
0
1
0
0
1
0
0
0
1
0
0
0
0
0
0
0
0
0
0
0
0
0
0
0
0
1
0
0
0
0
0
0
0
0
0
0
1
0
1
0
0
0
0
0
0
1
0
0
0
0
0
0
0
0
0
0
0
0
0
0
0
0
0
0
0
0
0
0
0
0
0
0
0
1
1
0
0
0
0
0
0
1
0
0
0
0
0
0
0
0
0
0
0
0
0
1
0
0
0
0
0
0
0
1
0
0
0
0
0
0
0
0
0
0
0
0
0
0
0
0
0
0
0
0
0
0
0
0
0
0
0
1
0
0
0
0
0
0
0
0
0
0
1
0
0
1
0
0
0
0
0
0
0
0
0
0
0
0
0
0
0
0
0
0
0
0
0
0
0
0
0
0
0
0
0
1
0
0
0
0
0
0
0
1
0
0
0
0
0
0
0
1
0
0
0
0
1
0
0
0
0
0
0
0
0
0
0
0
1
0
1
0
0
0
1
0
				</DataArray>
				<DataArray type="Float64" Name="h" NumberOfComponents="1" Format="ascii">
1.1423420075
1.1423231433
1.1455526371
1.1404520957
1.1468006928
1.1454701660
1.1433016871
1.1391148860
1.1427526082
1.1354791334
1.1391527674
1.1437796407
1.1403502234
1.1370371943
1.1400615428
1.1384733811
1.1414620375
1.1366568238
1.1425124144
1.1377513765
1.1472864924
1.1422466581
1.1461741362
1.1491248656
1.1397719792
1.1376517591
1.1460244492
1.1567830972
1.1484200870
1.1357055839
1.1362334381
1.1461660336
1.1423371282
1.1454669687
1.1557113816
1.1508648729
1.1513366356
1.1480717864
1.1567279672
1.1491381378
1.1484253358
1.1567858430
1.1459991889
1.1503315516
1.1508954583
1.1546734737
1.1480813278
1.1579734727
1.1735144750
1.1723659394
1.1495523972
1.1526615169
1.1503259171
1.1642293556
1.1550793233
1.1477987469
1.1545788880
1.1616286456
1.1636168168
1.1628625383
1.1662866224
1.1647764688
1.1725405061
1.1527098597
1.1522833769
1.1605098146
1.1711427449
1.1712657283
1.1648521714
1.1631471125
1.1635134840
1.1554433172
1.1496755553
1.1658969474
1.1646682521
1.1597163456
1.1619815428
1.1665098670
1.1597322824
1.1588681672
1.1689515424
1.1622756251
1.1766239543
1.1698924234
1.1567157420
1.1617296416
1.1701294929
1.1685466229
1.1677938367
1.1760306176
1.1710740085
1.1599064745
1.1677639229
1.1752437161
1.1637289124
1.1619098701
1.1671125999
1.1569056301
1.1588270475
1.1702256712
1.1760624229
1.1690757860
1.1656049818
1.1595222736
1.1328130720
1.1701773117
1.1648203494
1.1744601140
1.1665759323
1.1638546464
1.1743677490
1.1753116962
1.1697010281
1.1716992692
1.1672064730
1.1746020896
1.1656841484
1.1336170932
1.1738087789
1.1687428289
1.1324555997
1.1671671315
1.1626838845
1.1290005912
1.1704524785
1.1745499247
1.1673039895
1.1287996232
1.1738662379
1.1749579835
1.1731123640
1.1651110853
1.1688982802
1.1747133837
1.1326076721
1.1730829148
1.1356724007
1.1751051547
1.1713974286
1.1409301266
1.1291116693
1.1302931893
1.1737961679
1.1443125804
1.1630011805
1.1721358289
1.1381090636
1.1765517327
1.1301020616
1.1767974384
1.1343902809
1.1752639311
1.1755561672
1.1766087320
1.1703055918
1.1756421987
1.1763992726
1.1311986551
1.1766109251
1.1265242687
1.1427361235
1.1763719734
1.1368929561
1.1282758781
1.1300983435
1.1760074806
1.1477511505
1.1396721431
1.1271167981
1.1758449099
1.1762003575
1.1258430546
1.1764667114
1.1311939453
1.1494031353
1.1766573778
1.1460316612
1.1772082397
1.1767761125
1.1285844857
1.1756672190
1.1526960774
1.1267012135
1.1638907102
1.1253025368
1.1248973121
1.1511597168
1.1767249888
1.1265813429
1.1244832959
1.1558301159
1.1768831118
1.1254090780
1.1544869793
1.1766028380
1.1769726554
1.1302989128
1.1588195491
1.1575970927
1.1769605261
1.1242622078
1.1656181372
1.1247225193
1.1768572781
1.1617191413
1.1283506219
1.1400734492
1.1346834718
1.1605383948
1.1461496496
1.1555187295
1.1252663703
1.1295655963
1.1281305528
1.1373334747
1.1584205754
1.1430096258
1.1300540144
1.1524826575
1.1266492085
1.1634244795
1.1760503404
1.1493345569
1.1739618478
1.1667742178
1.1775409323
1.1772652421
1.1709397308
1.1645668290
1.1767664821
1.1771137636
1.1751179817
1.1689454376
1.1772469183
1.1776385729
1.1725337631
1.1567325829
1.1420525866
1.1263766730
1.1478072581
1.1563764178
1.1367056797
1.1303895903
1.1477239637
1.1362315448
1.1416912518
1.1296515462
1.1538145640
1.1393272478
1.1321481099
1.1448909990
1.1535899011
1.1315364104
1.1595694369
1.1590975398
1.1302464710
1.1446504145
1.1388900696
1.1281287440
1.1750190198
1.1507247920
1.1673298822
1.1714578033
1.1746012622
1.1684043263
1.1777648053
1.1780944378
1.1640076975
1.1773833629
1.1767695792
1.1779528894
1.1508035695
1.1767658599
1.1722324113
1.1737772721
1.1651069900
1.1694787982
1.1731543300
1.1758161054
1.1662326693
1.1773080699
1.1777373991
1.1776858438
1.1782473166
1.1774779319
1.1760064725
1.1704298737
1.1439653254
1.1318124807
1.1326473087
1.1436151543
1.1575084213
1.1388551369
1.1383137646
1.1492781030
1.1570941573
1.1492290120
1.1413694996
1.1344000222
1.1302444302
1.1325975356
1.1409091610
1.1547945202
1.1596658087
1.1601958374
1.1466136340
1.1545224507
1.1464030880
1.1336965424
1.1678185729
1.1727703560
1.1719772256
1.1779358666
1.1644863991
1.1786583751
1.1756593319
1.1519200461
1.1774779222
1.1787359356
1.1520352921
1.1752356788
1.1689102290
1.1774643653
1.1784050534
1.1699772008
1.1709505162
1.1737372765
1.1782808095
1.1743496900
1.1766999437
1.1780118160
1.1789188292
1.1783377583
1.1655915160
1.1764796548
1.1667262301
1.1781859518
1.1454268608
1.1809946298
1.1505804692
1.1577296519
1.1505532974
1.1341477894
1.1581728078
1.1410236123
1.1457753851
1.1404403428
1.1350378987
1.1812986476
1.1711757771
1.1602017392
1.1782496748
1.1428976435
1.1359953764
1.1820400303
1.1481840597
1.1740364630
1.1553291718
1.1479890644
1.1803397835
1.1803266527
1.1818011194
1.1325951998
1.1556331395
1.1607492248
1.1433768819
1.1671353547
1.1705392060
1.1750951155
1.1350848460
1.1775641485
1.1817708690
1.1367543919
1.1794393784
1.1762818056
1.1758578458
1.1790961151
1.1448373974
1.1793791185
1.1683132974
1.1649482991
1.1781707193
1.1785854705
1.1529573166
1.1781521292
1.1531002142
1.1693738433
1.1733058607
1.1724976879
1.1547919355
1.1790215286
1.1661110379
1.1749267576
1.1651968490
1.1796352884
1.1771399841
1.1476490724
1.1502736949
1.1517129121
1.1603537928
1.1704738418
1.1787184417
1.1583016543
1.1773618392
1.1626561592
1.1789509647
1.1788955195
1.1671785007
1.1714415058
1.1564669847
1.1743065960
1.1691219594
1.1787063532
1.1720883434
1.1471144614
1.1814037011
1.1801694268
1.1517324440
1.1794298770
1.1704399757
1.1682332405
1.1653213934
1.1425434484
1.1809473592
1.1821533160
1.1761209141
1.1804408195
1.1365828349
1.1811274874
1.1588023585
1.1731977220
1.1827607142
1.1790164386
1.1821493638
1.1758861263
1.1767959848
1.1835460229
1.1795755298
1.1805865496
1.1693571807
1.1731211296
1.1793554943
1.1448103609
1.1819978286
1.1725945237
1.1494251955
1.1725110189
1.1760047812
1.1775536514
1.1819770539
1.1798594412
1.1800769410
1.1350823092
1.1683030729
1.1563891543
1.1653215216
1.1837809570
1.1830416667
1.1767920310
1.1838713465
1.1383588447
1.1613226812
1.1486891024
1.1793068104
1.1540449648
1.1769066113
1.1744266289
1.1698600171
1.1625934181
1.1445843514
1.1798245969
1.1528265319
1.1788634234
1.1571531079
1.1654923025
1.1738448082
1.1851197642
1.1568274822
1.1390528715
1.1463018843
1.1475668550
1.1620162467
1.1466293124
1.1796754884
1.1853431316
1.1849185806
1.1794333327
1.1488963603
1.1755092227
1.1521165001
1.1749798745
1.1676759326
1.1859694281
1.1407271309
1.1476495036
1.1532186417
1.1507510764
1.1861119841
1.1780244164
1.1497579424
1.1824677663
1.1837649382
1.1553065006
1.1517139569
1.1603542425
1.1549458082
1.1719435956
1.1376309837
1.1647221083
1.1775230669
1.1488956660
1.1594971319
1.1802645890
1.1528270693
1.1702947543
1.1390507898
1.1807589661
1.1712167859
1.1399675032
1.1528898086
1.1594983836
1.1750019120
1.1741448914
1.1814364245
1.1490851325
1.1828672313
1.1523550567
1.1777569305
1.1676113367
1.1591405959
1.1810485656
1.1486895165
1.1784287133
1.1452324954
1.1445840550
1.1629769871
1.1407255008
1.1507515539
1.1376285348
1.1676113560
1.1620175537
1.1612126114
1.1554616815
1.1387262621
1.1582069863
1.1509849942
1.1502333214
1.1571541048
1.1596412648
1.1540851185
1.1837235622
1.1568347941
1.1471661045
1.1671084262
1.1415352567
1.1693782414
1.1615881520
1.1528233053
1.1826409660
1.1831908832
1.1569081172
1.1518911774
1.1830430049
1.1466295071
1.1649518406
1.1795774650
1.1549465150
1.1744266118
1.1793918391
1.1800844043
1.1548447173
1.1768993638
1.1828287264
1.1786701228
1.1704406172
1.1424169735
1.1662074501
1.1729428119
1.1802645964
1.1578800598
1.1523292906
1.1775547080
1.1824678080
1.1553731685
1.1754511318
1.1472469671
1.1805914255
1.1787076304
1.1725111528
1.1587531687
1.1804475518
1.1636599574
1.1538878575
1.1655478713
1.1598096500
1.1683042433
1.1601050311
1.1412482563
1.1857363527
1.1585131903
1.1650100972
1.1558832490
1.1851391387
1.1506453700
1.1761213134
1.1597760812
1.1621917778
1.1852041576
1.1801717819
1.1580047379
1.1614116717
1.1455328788
1.1845590517
1.1578155592
1.1729427636
1.1489579254
1.1797919924
1.1452322826
1.1548454388
1.1591415825
1.1490857156
1.1833300058
1.1716713197
1.1438862167
1.1399658226
1.1540552975
1.1600129632
1.1866849674
1.1415338625
1.1625107559
1.1621920537
1.1610517141
1.1625890658
1.1615890897
1.1528904473
1.1569089980
1.1471664326
1.1849297778
1.1872261585
1.1830865820
1.1777471815
1.1387242083
1.1622343681
1.1631004331
1.1590933686
1.1854372694
1.1836813485
1.1671084780
1.1606515779
1.1856172806
1.1632840966
1.1533472160
1.1439191122
1.1484348557
1.1641391712
1.1570036538
1.1614222289
1.1509856265
1.1836897840
1.1516680590
1.1426866491
1.1468604790
1.1815716315
1.1859231529
1.1875508725
1.1821868400
1.1598367637
1.1551080511
1.1453367961
1.1500366695
1.1871578430
1.1875565198
1.1629772931
1.1624248758
1.1624152466
1.1619993941
1.1852149636
1.1627202516
1.1629138634
1.1892762160
1.1884523687
1.1584615413
1.1588659452
1.1861934996
1.1596443482
1.1615661872
1.1634182613
1.1874370184
1.1888125932
1.1881910217
1.1586537158
1.1575442028
1.1622534431
1.1600900705
1.1610097808
1.1871684646
1.1881828454
1.1843442791
1.1859018779
1.1634204645
1.1889889665
1.1896143525
1.1596172707
1.1872258183
1.1861319798
1.1580074672
1.1901261645
1.1568359075
1.1882401632
1.1542164199
1.1553029433
1.1901553836
1.1578175334
1.1893504365
1.1884966714
1.1518926146
1.1876556905
1.1535194575
1.1563637626
1.1870269429
1.1870687645
1.1487433069
1.1440135906
1.1440979377
1.1440813480
1.1439919259
1.1424486153
1.1437854338
1.1391601897
1.1403143528
1.1467330441
1.1454804833
1.1467893963
1.1467171719
1.1427394045
1.1400734651
1.1433120141
1.1366988973
1.1403049335
1.1424404973
1.1392058692
1.1366621014
1.1404464168
1.1455450187
1.1425350410
1.1357101297
1.1382763819
1.1434709424
1.1391044873
1.1376524618
1.1397755574
1.1354747216
1.1405183580
1.1403368254
1.1473517299
1.1407027107
1.1441168509
1.1366931883
1.1362362025
1.1391952322
1.1454687131
1.1423504595
1.1461946518
1.1442071816
1.1491443461
1.1558924663
1.1414607353
1.1384698122
1.1460289348
1.1567586623
1.1434667526
1.1382706157
1.1484444020
1.1370327123
1.1377506425
1.1473463883
1.1461409885
1.1586313747
1.1422292105
1.1513698603
1.1405042187
1.1472828413
1.1440903134
1.1442323342
1.1586723231
1.1579733256
1.1406968663
1.1509037089
1.1495537335
1.1481181800
1.1567541211
1.1491169415
1.1483944758
1.1546005058
1.1539928556
1.1460005292
1.1534803019
1.1364732302
1.1558582409
1.1569598628
1.1555199073
1.1441915405
1.1503553921
1.1586326051
1.1734231689
1.1713814403
1.1442046568
1.1513664651
1.1535471580
1.1586566960
1.1508535759
1.1523214028
1.1480336721
1.1577456157
1.1557107297
1.1725320671
1.1712528415
1.1587022674
1.1513344337
1.1527221953
1.1569567419
1.1608708577
1.1617979783
1.1502947232
1.1658875860
1.1626915985
1.1554467891
1.1497063242
1.1632190617
1.1533466422
1.1521371695
1.1534773345
1.1663328488
1.1555192741
1.1567794752
1.1619791505
1.1635104260
1.1659941711
1.1646613466
1.1539551893
1.1499003103
1.1648506400
1.1536284710
1.1364694089
1.1631466254
1.1535430127
1.1577462344
1.1604175091
1.1586928289
1.1700052683
1.1594634577
1.1722758290
1.1735237057
1.1526441123
1.1713934860
1.1546441724
1.1622816681
1.1698804581
1.1606514998
1.1734346500
1.1723796403
1.1662873679
1.1647764217
1.1498625516
1.1677015463
1.1660031236
1.1636211903
1.1614902231
1.1626967236
1.1579324287
1.1514256222
1.1608736150
1.1536278025
1.1590911144
1.1550742492
1.1649402695
1.1632199792
1.1663332746
1.1477739721
1.1623602986
1.1647100204
1.1533161752
1.1642332204
1.1618018783
1.1628678176
1.1599275464
1.1616301374
1.1520976883
1.1677618139
1.1700162614
1.1595220091
1.1588512794
1.1606517830
1.1548321144
1.1594652910
1.1690760572
1.1711197456
1.1691754729
1.1686260919
1.1604957463
1.1760604200
1.1711561053
1.1575576245
1.1569375033
1.1677594123
1.1619255513
1.1607978253
1.1722911282
1.1702253550
1.1701675504
1.1603991290
1.1766114233
1.1623577386
1.1665709551
1.1753031427
1.1677026313
1.1647158666
1.1696967312
1.1590926965
1.1596998887
1.1742723217
1.1614946559
1.1665132310
1.1513969466
1.1711222278
1.1579141117
1.1743527721
1.1638624814
1.1649426817
1.1691777709
1.1766094000
1.1641244172
1.1677590520
1.1617135012
1.1671657537
1.1676182231
1.1575574517
1.1346647095
1.1608000650
1.1686338702
1.1566909311
1.1588426828
1.1701292639
1.1766230210
1.1689514151
1.1656825100
1.1597331556
1.1711343788
1.1324562607
1.1685536599
1.1548065341
1.1711225442
1.1651186885
1.1732461834
1.1343248942
1.1745461810
1.1692515675
1.1718130338
1.1678001077
1.1637195388
1.1752550051
1.1746457364
1.1760352648
1.1710756312
1.1737082863
1.1613445937
1.1704433264
1.1672947981
1.1742894713
1.1749601067
1.1656051007
1.1753960436
1.1731466410
1.1641266628
1.1346644650
1.1676266139
1.1726375554
1.1326097351
1.1730827654
1.1688880229
1.1328128167
1.1671135236
1.1630128449
1.1719666339
1.1302945599
1.1702489244
1.1343261854
1.1746443609
1.1717043954
1.1744657451
1.1357363013
1.1613445228
1.1718162274
1.1672138291
1.1301028434
1.1732645999
1.1737983069
1.1281566982
1.1745988072
1.1692571845
1.1721371583
1.1737110982
1.1648131193
1.1309977198
1.1609174743
1.1718812460
1.1757361700
1.1753955404
1.1726444985
1.1328769475
1.1745240574
1.1753169175
1.1712344200
1.1687537659
1.1731663400
1.1752667854
1.1336148521
1.1721972350
1.1738098581
1.1337931233
1.1343860993
1.1755596155
1.1703066941
1.1357402002
1.1281554621
1.1396715357
1.1300982034
1.1702597817
1.1763793932
1.1309963372
1.1282695988
1.1768136762
1.1703466918
1.1719841992
1.1289991075
1.1738635849
1.1427415173
1.1307690677
1.1626746796
1.1731111827
1.1330164970
1.1368885308
1.1730746897
1.1763757391
1.1287987580
1.1766141885
1.1712330331
1.1356778874
1.1747104037
1.1759049670
1.1698166794
1.1753174563
1.1751651560
1.1751014959
1.1764699436
1.1343914734
1.1328137107
1.1713960204
1.1337904489
1.1718979548
1.1328797392
1.1757328821
1.1609071461
1.1721955392
1.1758484562
1.1732750131
1.1745210284
1.1762033736
1.1311932317
1.1767944277
1.1267026170
1.1683765856
1.1307688334
1.1282689227
1.1760086484
1.1762425104
1.1766655582
1.1443002637
1.1765483552
1.1381104865
1.1285849383
1.1768108834
1.1330146550
1.1703555443
1.1278507301
1.1291116251
1.1756706768
1.1730723839
1.1460447369
1.1724080709
1.1409264624
1.1763757483
1.1272296870
1.1265827818
1.1756380825
1.1763960482
1.1328152534
1.1677959327
1.1759013065
1.1314440898
1.1343903158
1.1698245718
1.1253044832
1.1751611993
1.1766054982
1.1311988081
1.1732727158
1.1511818940
1.1660785849
1.1766053999
1.1477314916
1.1272287267
1.1760061945
1.1769757190
1.1278497440
1.1766624073
1.1724061948
1.1764620770
1.1257294306
1.1762388246
1.1683781119
1.1272221425
1.1768855107
1.1740455691
1.1282752943
1.1760043103
1.1545063874
1.1771347377
1.1265229496
1.1656227023
1.1767340637
1.1258414272
1.1247242943
1.1493850638
1.1768596114
1.1677963346
1.1271151283
1.1242639229
1.1314426961
1.1576108648
1.1766934167
1.1767736346
1.1300472459
1.1257278143
1.1272211395
1.1252680223
1.1771319589
1.1764588304
1.1281940250
1.1770169738
1.1526781249
1.1740431110
1.1766548437
1.1660738059
1.1251294402
1.1247111820
1.1772058344
1.1295659542
1.1605469208
1.1558165132
1.1771157110
1.1767316412
1.1244816502
1.1766910313
1.1768818116
1.1768996963
1.1638851536
1.1248954153
1.1767224698
1.1634297293
1.1296529301
1.1416901964
1.1318281779
1.1362279184
1.1588112887
1.1247094058
1.1612363715
1.1262480632
1.1477322635
1.1322086855
1.1300474314
1.1567381103
1.1254072746
1.1256611500
1.1770145505
1.1302994142
1.1271410087
1.1388862137
1.1337595739
1.1595719640
1.1446540396
1.1315365278
1.1538234190
1.1251277759
1.1263783605
1.1281929592
1.1772059824
1.1623547642
1.1617145499
1.1768797382
1.1759915051
1.1508138569
1.1768975200
1.1737591919
1.1662369156
1.1776866825
1.1773044414
1.1775542636
1.1704254379
1.1640098559
1.1767567582
1.1769586117
1.1750001516
1.1684061678
1.1773847177
1.1776397344
1.1777656592
1.1722202308
1.1555088398
1.1436142592
1.1342810229
1.1266474201
1.1492334227
1.1575096712
1.1322097498
1.1612336852
1.1318297413
1.1277587242
1.1617918190
1.1383111832
1.1318140856
1.1262465045
1.1461412690
1.1346869002
1.1400755896
1.1283488003
1.1524699091
1.1409064042
1.1336970192
1.1256593339
1.1464051183
1.1547978959
1.1300531942
1.1584145801
1.1601952272
1.1358825829
1.1290576428
1.1430072543
1.1337614571
1.1373379022
1.1271391015
1.1751362413
1.1520401278
1.1628833310
1.1667291891
1.1709503344
1.1743368645
1.1689450437
1.1776400378
1.1776363111
1.1782793051
1.1645641829
1.1772456794
1.1782055469
1.1766856138
1.1780050440
1.1493221246
1.1772043710
1.1767730944
1.1725473354
1.1739809514
1.1644859984
1.1689137779
1.1727635758
1.1756437878
1.1667707093
1.1772664387
1.1775528382
1.1779355396
1.1623549744
1.1775391493
1.1784029693
1.1774671899
1.1783135876
1.1760635014
1.1709453241
1.1454263645
1.1364958493
1.1303877069
1.1277573140
1.1341497616
1.1420546173
1.1563724611
1.1622754480
1.1404392066
1.1617925530
1.1367084638
1.1505551139
1.1581720062
1.1478022132
1.1342819295
1.1428962503
1.1359965427
1.1290555801
1.1312773391
1.1393307773
1.1535835665
1.1607471246
1.1381152005
1.1590960617
1.1358837110
1.1479899612
1.1556337245
1.1448896840
1.1321472427
1.1671789803
1.1731632964
1.1714434662
1.1777373638
1.1651066494
1.1787113670
1.1758332716
1.1531018630
1.1774874843
1.1783173338
1.1788976202
1.1789465015
1.1633897109
1.1507178053
1.1749202178
1.1694767199
1.1773518999
1.1782473064
1.1693765038
1.1714601344
1.1733039972
1.1780941788
1.1628858851
1.1790161879
1.1746164551
1.1767840732
1.1779575857
1.1790912848
1.1785822912
1.1649458750
1.1762723082
1.1673271058
1.1781619685
1.1782070177
1.1813999827
1.1731976463
1.1627835612
1.1794296128
1.1439666443
1.1364959522
1.1812646943
1.1819944443
1.1517327280
1.1725249654
1.1588007709
1.1492754356
1.1792463251
1.1809460279
1.1818527667
1.1326453311
1.1570935730
1.1622785564
1.1425434127
1.1471141649
1.1388566619
1.1691217183
1.1685954879
1.1767961155
1.1365850563
1.1762727024
1.1811572049
1.1387822167
1.1811609300
1.1716994631
1.1613204041
1.1785036093
1.1413716782
1.1343988353
1.1809069032
1.1822695439
1.1494252933
1.1744641372
1.1563884616
1.1466129393
1.1802088314
1.1803691516
1.1814312025
1.1312750989
1.1545200746
1.1596669873
1.1403697341
1.1448099095
1.1381152229
1.1675858055
1.1701249335
1.1755369148
1.1336842721
1.1778827012
1.1817047517
1.1383605135
1.1553484272
1.1796689802
1.1639731814
1.1764920806
1.1639093407
1.1796198087
1.1755071581
1.1789217883
1.1463018226
1.1472529418
1.1507264618
1.1794283074
1.1521152946
1.1597574632
1.1676746420
1.1790218798
1.1655927337
1.1590622886
1.1781952824
1.1637794853
1.1783394292
1.1540449712
1.1780196431
1.1519167240
1.1699748468
1.1737419043
1.1564246044
1.1719448165
1.1553054208
1.1793007457
1.1654895505
1.1752453399
1.1650099535
1.1798187479
1.1769026506
1.1789017833
1.1451651974
1.1462147363
1.1511978704
1.1797430150
1.1525260237
1.1604233618
1.1698603665
1.1786647588
1.1633931930
1.1585124276
1.1774762862
1.1625930757
1.1787384110
1.1788585408
1.1678171805
1.1719770718
1.1568265368
1.1738449943
1.1696297692
1.1828448190
1.1788516670
1.1803727988
1.1712169259
1.1725252041
1.1750019180
1.1780161272
1.1457760594
1.1811949088
1.1808984435
1.1801211617
1.1811908250
1.1706966331
1.1505794408
1.1795775534
1.1710278073
1.1685956314
1.1736977224
1.1656743816
1.1744818058
1.1410239128
1.1808950240
1.1818571603
1.1764869397
1.1826402569
1.1795763416
1.1810485047
1.1801933729
1.1350358379
1.1667559031
1.1811581475
1.1577307773
1.1671356175
1.1682333729
1.1837212786
1.1831888959
1.1736974252
1.1784286844
1.1830911557
1.1792468221
1.1819967319
1.1837773987
1.1387814570
1.1627873544
1.1762728516
1.1771524117
1.1821492217
1.1711765422
1.1834367645
1.1796192703
1.1811269986
1.1803920013
1.1696899043
1.1705391833
1.1734820076
1.1795612713
1.1433778171
1.1812699930
1.1819355693
1.1805008911
1.1722248645
1.1481838292
1.1803276838
1.1730551628
1.1667851866
1.1667851364
1.1763062287
1.1403689121
1.1813014423
1.1820433767
1.1778086264
1.1819843904
1.1800475315
1.1797695909
1.1336819038
1.1688948741
1.1758860324
1.1803403800
1.1553289960
1.1656747641
1.1833271923
1.1828680582
1.1750955288
1.1771093274
1.1827572996
1.1778826648
1.1817061361
1.1841525431
1.1367527933
1.1602041935
1.1744638754
1.1782501120
1.1474757720
1.1790253092
1.1845588228
1.1851380758
1.1797483779
1.1529562806
1.1475672935
1.1771470651
1.1525272136
1.1768994346
1.1748935062
1.1704725627
1.1626563982
1.1857351815
1.1410722611
1.1472533452
1.1431577778
1.1796404093
1.1549311727
1.1517609800
1.1856166376
1.1789021346
1.1498612743
1.1812380473
1.1844614100
1.1553493985
1.1502745800
1.1612857123
1.1612860992
1.1560905327
1.1661129768
1.1743083509
1.1847201958
1.1564679188
1.1617161037
1.1374960855
1.1448370711
1.1662065501
1.1760029529
1.1485181065
1.1508784195
1.1608097552
1.1486809797
1.1816576319
1.1453115659
1.1794446069
1.1852037522
1.1847033415
1.1793847320
1.1477007946
1.1758627990
1.1511989965
1.1753773080
1.1683133581
1.1617165149
1.1854359345
1.1391494845
1.1462147793
1.1425952385
1.1796249639
1.1538866853
1.1496257633
1.1857957129
1.1781594983
1.1485188365
1.1825722359
1.1837161926
1.1547930188
1.1507274079
1.1604239122
1.1537430058
1.1539025040
1.1639761906
1.1724968798
1.1848596376
1.1564256437
1.1361896235
1.1451648408
1.1492230497
1.1634209373
1.1779395089
1.1462043993
1.1498603236
1.1583764591
1.1804395090
1.1638262740
1.1410711247
1.1517610233
1.1706965943
1.1374940749
1.1808984679
1.1693570990
1.1634231005
1.1611311103
1.1715707921
1.1562925284
1.1415053079
1.1588281876
1.1829345047
1.1539196227
1.1753517034
1.1497235091
1.1583778905
1.1600333025
1.1753517578
1.1755369086
1.1744817602
1.1544310413
1.1808931640
1.1809138234
1.1702948000
1.1675865033
1.1829367352
1.1570415863
1.1501864804
1.1828451788
1.1803713847
1.1684135506
1.1510968380
1.1696291731
1.1433271140
1.1780161150
1.1775643973
1.1679120174
1.1673991037
1.1821473347
1.1642641345
1.1538448911
1.1810012356
1.1839743386
1.1701247828
1.1811492349
1.1840893428
1.1603551561
1.1520496546
1.1811493405
1.1825556913
1.1474762294
1.1638796407
1.1786909128
1.1465463201
1.1431574752
1.1817714554
1.1629843321
1.1391477535
1.1496259960
1.1688460380
1.1361872873
1.1795612296
1.1679120258
1.1777569780
1.1608115952
1.1614505046
1.1731210839
1.1564938585
1.1401765407
1.1588650568
1.1520298488
1.1514494551
1.1560912788
1.1600962675
1.1720884121
1.1767921691
1.1725944517
1.1553014674
1.1818053919
1.1828669243
1.1830937848
1.1576836464
1.1483610968
1.1819979538
1.1666460547
1.1530769814
1.1430582305
1.1763061820
1.1840874282
1.1688460286
1.1687070842
1.1629077311
1.1542147937
1.1834374776
1.1838731184
1.1580289487
1.1533525246
1.1819773974
1.1837785765
1.1453118910
1.1647214167
1.1798595255
1.1447620966
1.1425942535
1.1796227558
1.1539027106