<VTKFile type="UnstructuredGrid" version="0.1">
	<UnstructuredGrid>
		<Piece NumberOfPoints="1862" NumberOfCells="3498">
			<CellData>
				<DataArray type="Int32" Name="type" NumberOfComponents="1" Format="ascii">
0
0
0
0
0
0
0
0
0
0
0
0
0
0
0
0
1
0
0
1
0
0
0
0
0
0
0
0
0
0
0
0
0
1
0
0
0
0
0
0
0
0
0
0
0
0
0
0
0
0
1
0
0
0
0
0
0
0
0
0
0
1
0
0
0
0
0
0
0
0
0
0
0
0
0
0
0
0
0
0
0
0
0
0
0
0
0
0
0
0
0
0
0
0
0
0
0
0
0
0
0
0
0
0
0
0
0
0
0
0
0
0
0
0
0
0
0
0
0
0
0
0
0
1
0
0
0
0
0
0
0
0
0
0
0
0
0
0
0
0
0
0
0
0
0
0
0
0
0
0
0
1
0
1
1
0
0
0
0
0
0
0
0
0
0
0
0
0
1
0
1
0
0
0
0
1
0
0
0
0
0
0
0
0
1
1
0
0
0
0
0
1
0
0
0
0
0
0
0
0
1
0
0
0
0
0
0
0
0
0
0
0
0
0
0
0
0
0
0
0
0
0
0
0
0
0
0
0
0
0
0
0
0
1
0
0
0
0
0
0
0
0
0
0
0
0
0
0
0
0
0
0
0
0
0
0
0
0
0
0
0
0
0
0
0
0
0
0
0
0
0
0
0
0
0
0
0
0
0
0
0
1
0
0
0
0
0
0
0
0
0
0
0
0
0
0
0
0
0
0
0
0
0
0
0
0
0
0
0
0
0
0
0
0
0
0
0
0
0
0
0
0
0
0
0
0
0
0
0
0
0
0
1
0
0
0
0
0
0
0
0
0
0
0
0
0
0
0
0
0
0
0
0
0
0
0
0
0
0
0
0
0
0
0
0
0
0
0
0
0
0
0
0
0
0
0
0
0
0
0
0
0
0
0
0
0
0
0
0
0
1
0
0
0
0
0
0
0
0
0
0
0
0
0
0
0
0
0
0
0
0
0
0
0
0
0
0
0
0
0
0
0
0
0
0
0
0
0
0
0
0
0
0
0
0
0
0
0
0
0
0
0
0
0
0
0
0
0
0
0
0
0
0
0
0
0
0
0
0
0
0
0
0
0
0
0
0
0
0
0
0
0
0
0
0
0
0
0
0
0
0
0
0
0
0
0
0
0
0
0
0
0
0
0
0
0
0
0
0
0
0
0
0
0
0
0
0
0
0
0
0
0
0
0
0
0
0
0
0
0
0
0
0
1
0
0
0
0
0
0
0
0
0
0
0
0
0
0
0
0
0
0
0
1
0
0
0
0
0
0
0
0
0
0
0
0
0
0
0
0
0
0
0
0
0
0
0
0
0
0
0
0
0
0
0
0
0
0
0
0
0
0
0
0
0
0
0
0
0
0
0
0
0
0
0
0
0
1
0
0
0
0
0
0
0
0
0
0
0
0
0
0
0
0
0
0
0
0
0
0
0
1
0
0
0
0
0
0
0
0
0
0
0
0
0
0
0
0
0
0
0
1
0
0
0
1
0
0
0
0
0
0
0
0
0
0
0
0
0
0
0
0
0
0
0
0
0
0
0
0
0
1
0
0
0
0
0
0
0
1
0
0
0
0
0
0
0
0
0
0
0
0
0
0
0
0
0
0
0
0
0
0
0
0
0
0
1
0
0
0
0
0
0
0
1
0
0
0
0
0
0
1
0
0
0
0
0
0
0
0
0
0
0
0
0
0
0
0
0
0
0
0
0
0
0
0
0
0
0
0
0
0
0
0
0
0
0
0
0
0
1
0
0
0
0
0
1
0
0
0
0
0
0
0
1
0
0
0
0
0
0
0
0
0
0
0
0
0
1
0
0
0
0
0
0
0
0
0
0
0
0
0
0
0
0
0
0
0
0
0
0
0
0
0
0
0
0
0
0
0
0
0
0
0
0
0
0
0
0
0
0
0
0
0
0
0
0
0
0
0
0
0
1
0
0
0
0
0
0
0
0
0
0
0
0
0
0
0
0
0
0
0
1
0
0
0
0
0
0
0
0
0
1
0
0
0
0
0
0
0
0
0
0
0
0
0
0
0
0
0
0
0
0
0
0
0
0
0
0
0
0
0
1
0
1
0
0
0
0
0
0
0
0
0
0
0
0
0
0
0
0
0
0
0
0
0
0
0
0
0
0
0
1
0
0
0
1
0
0
0
0
0
0
0
0
0
0
0
0
0
0
0
0
0
0
0
0
0
0
0
0
0
0
0
0
1
0
0
0
0
0
0
0
0
0
0
0
0
0
0
0
0
0
0
0
0
0
0
0
0
0
1
0
0
0
0
0
0
0
0
0
0
0
0
0
0
0
0
0
0
0
0
0
0
0
1
0
0
0
0
0
0
1
0
0
0
0
0
0
0
0
0
0
0
1
0
0
0
0
0
0
0
0
0
0
0
0
0
0
0
0
0
0
0
0
1
0
0
0
0
0
0
0
0
0
0
0
1
0
0
0
0
0
0
0
0
0
0
0
0
0
0
0
0
0
0
0
0
0
1
0
0
0
0
0
0
0
0
0
1
1
0
1
0
1
0
0
0
0
0
0
0
0
0
0
0
1
0
0
0
0
0
1
1
0
0
0
0
0
0
1
0
0
0
0
0
1
1
1
0
0
0
0
0
0
0
0
0
0
0
0
1
1
0
0
1
0
0
0
0
0
1
0
0
0
1
0
1
0
0
0
0
0
0
0
1
0
0
0
0
0
0
0
1
0
0
1
0
0
0
0
0
0
0
0
0
0
0
0
0
0
0
1
0
0
0
0
0
0
0
0
0
0
0
0
0
0
0
0
0
0
0
0
0
0
0
0
0
0
0
0
0
0
0
0
0
0
0
0
1
0
0
0
0
0
0
1
0
0
0
1
0
0
0
0
0
0
0
0
0
0
0
1
0
0
0
0
0
0
0
0
0
0
0
0
0
0
0
0
0
0
0
0
0
0
0
0
0
0
0
0
0
0
0
0
0
0
0
0
0
0
0
0
1
1
0
0
0
0
0
0
0
0
0
0
0
0
0
1
0
0
0
0
0
0
0
0
0
0
0
0
0
0
0
0
0
0
0
0
0
0
0
0
0
0
0
0
0
0
0
0
0
0
0
0
0
0
0
0
0
0
0
0
0
0
0
0
0
0
0
0
0
0
0
0
0
0
0
0
0
0
0
0
0
0
0
0
0
0
0
0
1
1
0
0
0
0
0
0
0
0
1
0
0
0
0
0
0
0
0
0
0
0
0
0
0
0
0
0
0
0
0
0
0
0
1
0
0
0
0
0
0
0
0
0
0
0
0
0
0
0
0
1
0
0
0
0
0
0
0
0
0
0
0
0
0
0
0
0
0
0
0
0
0
0
0
0
0
0
0
0
0
0
0
0
0
0
0
0
0
0
0
0
0
0
0
0
0
0
0
0
0
0
0
0
0
0
0
0
0
0
0
0
0
0
0
0
0
0
0
0
0
0
0
0
0
0
0
0
0
0
0
0
0
0
0
0
0
0
0
0
0
0
1
1
0
0
0
0
0
1
0
0
0
0
0
0
0
0
0
0
0
0
1
0
0
0
0
0
0
0
0
0
0
0
0
0
0
0
0
0
0
0
0
0
0
0
0
0
0
0
0
0
0
0
0
0
0
0
0
0
0
0
0
0
0
0
0
0
0
0
0
0
0
0
0
0
1
0
1
0
0
0
0
0
0
0
0
0
0
0
0
0
0
0
0
0
0
1
0
0
0
0
0
0
0
0
0
0
0
0
0
0
0
0
0
0
0
0
0
0
0
0
0
0
0
0
0
0
0
0
0
0
0
0
0
0
0
0
0
0
0
0
0
0
0
0
0
0
0
0
0
0
0
0
0
0
0
0
0
0
0
0
0
0
0
0
0
0
1
0
0
0
0
0
0
0
0
0
0
1
0
0
0
0
0
0
0
0
0
0
0
0
0
0
0
0
0
0
0
0
0
0
0
0
0
0
0
0
0
0
0
0
0
0
0
0
0
1
0
0
0
0
0
0
0
0
0
0
0
0
0
0
0
0
0
0
0
0
0
0
0
0
0
0
0
0
0
0
0
0
0
0
0
0
0
0
0
0
0
0
0
0
0
0
0
0
0
0
0
0
0
0
0
0
0
0
0
0
0
0
0
0
0
0
0
0
0
0
0
0
0
0
0
0
0
0
0
0
0
1
0
0
0
0
0
0
0
0
0
0
0
0
0
0
0
0
0
0
0
0
0
0
0
0
0
0
0
0
0
0
0
0
0
0
0
0
0
0
0
0
0
0
0
0
0
0
0
0
0
0
0
0
0
0
0
0
0
0
0
0
0
0
0
0
0
0
0
0
0
0
0
0
0
0
0
0
0
0
0
0
0
0
0
0
0
0
0
0
0
0
0
0
0
0
0
0
0
0
0
0
0
0
0
0
0
0
0
0
0
0
0
0
0
0
0
0
0
0
0
0
0
0
0
1
0
0
0
0
0
0
0
0
0
0
0
0
0
0
0
0
0
0
0
0
0
0
0
0
0
0
0
0
0
0
0
0
0
0
0
0
0
0
0
0
0
0
0
0
0
0
0
0
0
0
0
0
0
0
0
0
0
0
0
0
0
0
0
0
0
0
0
0
0
0
0
0
0
0
0
0
0
0
0
0
0
1
0
0
0
0
0
0
0
1
0
0
0
0
0
0
0
0
0
0
0
0
0
0
0
0
0
0
0
0
0
0
0
0
0
0
0
0
0
0
0
0
0
0
0
0
0
1
0
0
0
0
0
0
0
0
0
0
0
0
0
0
0
0
0
0
0
0
0
1
0
0
0
0
0
0
0
0
0
0
0
0
1
1
0
0
0
0
0
0
0
0
0
0
0
0
0
0
0
1
1
0
1
0
0
0
0
0
0
0
0
0
1
0
0
0
0
0
0
1
0
0
0
0
0
0
0
0
0
0
1
0
0
0
0
1
0
1
0
0
0
0
0
0
0
1
0
0
0
1
0
0
0
1
0
1
1
0
0
1
1
0
0
0
1
0
0
0
1
0
0
0
0
0
0
0
0
0
1
0
0
0
0
0
0
1
0
0
0
0
0
0
0
0
0
0
0
0
0
0
0
0
0
0
0
0
0
0
0
0
0
0
0
1
0
0
1
0
0
0
0
0
0
0
0
0
0
0
0
0
0
0
0
0
0
1
0
0
1
0
0
0
0
0
0
0
0
0
0
0
1
0
0
1
0
0
0
0
0
0
0
0
0
0
0
1
1
0
0
0
0
0
0
0
0
0
0
0
0
1
0
0
0
0
0
0
0
0
0
0
0
0
0
0
0
0
0
1
0
0
0
0
0
0
0
0
0
0
0
0
0
0
0
0
0
1
0
0
0
0
0
0
0
0
0
0
0
0
0
0
0
0
0
0
0
0
0
0
0
0
0
0
0
0
0
0
0
0
0
0
0
0
0
0
0
0
1
0
0
0
0
0
0
0
0
0
0
0
0
0
0
0
0
0
0
0
0
0
0
0
0
0
0
0
0
0
0
0
0
0
0
0
0
0
0
0
0
0
0
0
0
0
1
0
0
0
0
0
0
0
0
0
0
0
0
0
0
0
0
0
0
0
0
0
0
0
0
0
0
0
0
0
0
0
0
0
0
0
0
0
0
0
0
0
0
0
0
0
0
0
1
0
0
0
0
0
0
0
0
0
0
1
0
0
0
0
0
0
0
0
0
0
0
0
0
0
0
1
0
0
1
0
0
0
0
0
0
0
0
0
0
0
0
0
0
0
0
0
0
0
0
0
0
0
1
0
0
0
0
0
0
0
0
0
0
0
0
0
0
0
0
0
0
0
0
0
0
0
0
0
0
0
0
0
0
0
0
0
0
0
1
0
0
0
0
0
0
0
0
0
0
0
0
0
0
0
0
0
0
0
0
0
0
0
0
0
0
0
0
0
0
0
0
0
0
0
0
0
0
0
0
0
0
0
0
0
0
0
0
0
0
0
0
0
0
0
0
0
0
0
0
0
0
0
0
0
0
0
0
0
0
0
0
0
0
0
0
1
0
0
0
0
0
0
0
0
0
0
0
0
0
0
0
0
0
0
0
0
0
0
0
0
0
0
0
0
0
0
0
0
0
0
0
0
0
0
0
1
0
0
0
0
0
0
0
0
0
0
0
0
1
1
0
0
0
0
0
0
0
0
0
0
0
0
0
0
0
0
0
0
0
0
0
0
0
0
0
0
0
0
0
0
0
0
0
0
0
0
0
0
0
0
0
0
0
0
0
0
0
0
0
0
0
0
0
0
0
0
0
0
0
0
0
0
0
0
0
0
0
0
0
0
0
0
0
0
0
0
0
0
0
0
0
0
0
0
0
0
0
0
0
0
0
0
0
0
0
0
0
0
0
0
0
1
0
1
0
0
0
0
0
0
0
1
1
1
1
0
0
0
0
0
0
0
0
0
0
0
0
0
0
0
0
0
0
0
0
0
0
0
0
0
0
0
0
1
1
0
0
0
0
0
0
0
0
0
0
0
0
0
0
0
0
0
0
1
0
0
0
0
0
0
0
1
1
0
1
1
0
0
1
0
0
0
0
0
0
0
1
0
1
0
0
0
0
0
0
0
0
0
0
0
0
0
0
0
0
0
0
0
0
0
0
0
0
0
0
0
1
1
0
0
0
1
1
0
0
0
0
1
0
0
1
0
1
0
0
0
0
0
1
0
0
0
1
0
0
0
0
0
0
0
0
0
0
0
0
0
0
0
0
0
0
0
0
0
0
0
0
0
0
0
1
0
0
0
0
0
0
1
0
0
0
0
0
0
0
0
0
0
0
0
0
0
0
0
0
0
0
0
0
0
0
0
0
0
0
0
0
1
0
1
0
0
0
0
0
0
0
1
0
0
0
0
0
0
0
0
0
0
0
1
0
0
0
0
0
0
0
0
0
1
0
0
0
0
0
0
0
1
0
0
0
0
0
0
0
1
0
0
0
0
0
0
0
0
0
0
0
0
0
0
0
0
0
0
0
1
0
1
0
0
0
0
0
1
0
0
0
0
0
0
0
0
0
0
0
0
0
0
0
0
0
0
0
0
0
0
0
0
0
1
0
1
0
0
0
0
0
0
0
0
0
1
0
0
0
0
0
1
0
0
0
0
0
0
0
0
0
0
0
0
0
0
0
1
0
0
0
0
0
0
0
0
1
0
0
0
0
0
0
0
0
0
0
0
0
0
0
0
0
0
0
0
0
0
0
0
0
0
0
0
0
0
0
1
0
0
0
0
0
0
0
0
0
0
0
0
0
0
0
0
1
0
0
0
0
0
0
0
0
1
0
0
0
0
0
0
0
0
0
1
0
0
0
0
0
1
0
0
0
0
0
0
0
0
0
0
0
0
0
0
0
0
0
0
0
1
0
0
0
0
0
0
1
0
0
0
0
0
0
0
0
1
0
0
0
0
0
0
0
0
0
0
0
0
0
0
1
0
0
1
0
0
0
1
0
0
0
0
0
0
0
0
0
0
0
0
0
0
0
0
1
0
0
0
0
0
0
0
0
0
0
1
0
1
0
0
0
0
0
0
1
0
0
0
0
0
0
0
0
0
0
0
0
0
0
0
0
0
0
0
0
0
0
0
0
0
0
0
1
1
0
0
0
0
0
0
1
0
0
0
0
0
0
0
0
0
0
0
0
0
1
0
0
0
0
0
0
0
1
0
0
0
0
0
0
0
0
0
0
0
0
0
0
0
0
0
0
0
0
0
0
0
0
0
0
0
1
0
0
0
0
0
0
0
0
0
0
1
0
0
1
0
0
0
0
0
0
0
0
0
0
0
0
0
0
0
0
0
0
0
0
0
0
0
0
0
0
0
0
0
1
0
0
0
0
0
0
0
1
0
0
0
0
0
0
0
1
0
0
0
0
1
0
0
0
0
0
0
0
0
0
0
0
1
0
1
0
0
0
1
0
				</DataArray>
				<DataArray type="Float64" Name="h" NumberOfComponents="1" Format="ascii">
1.1266950231
1.1266662067
1.1380175734
1.1312020508
1.1387368121
1.1365974452
1.1336275798
1.1265200711
1.1313116719
1.1227011404
1.1292212537
1.1354732832
1.1222077358
1.1274899434
1.1256130968
1.1149998037
1.1333835949
1.1213468264
1.1249096848
1.1295161679
1.1419570322
1.1198040339
1.1297623470
1.1435814233
1.1313831865
1.1127388111
1.1212412027
1.1566807146
1.1371347583
1.1258723237
1.1280519762
1.1320597619
1.1171552633
1.1385926649
1.1638361140
1.1455508627
1.1509691541
1.1290331589
1.1557286692
1.1449545328
1.1393512961
1.1612161346
1.1240809565
1.1378814275
1.1475107797
1.1500420823
1.1318147703
1.1721518962
1.2295411545
1.2199384241
1.1461897344
1.1474912751
1.1404820314
1.1927078928
1.1579823275
1.1226653202
1.1527223012
1.1897225719
1.1970439518
1.1905604231
1.2142267485
1.2061028691
1.2285999858
1.1499343568
1.1420083280
1.1717785910
1.2110517988
1.2186388956
1.2062205762
1.1970063784
1.1987068182
1.1607054524
1.1280434320
1.2002816304
1.1991375931
1.1621626641
1.1908165802
1.2131175272
1.1808815227
1.1608595663
1.2285761708
1.1794603016
1.2473134291
1.2092765667
1.1497089194
1.1724520488
1.2335800564
1.2006652637
1.2151667905
1.2395472762
1.2336176945
1.1651324160
1.2205744635
1.2306036745
1.1819804049
1.1749708588
1.1922887591
1.1533526580
1.1627613813
1.2328146948
1.2435759294
1.2287967685
1.1913256807
1.1794553554
1.1186244953
1.2033474003
1.1831868649
1.2346598138
1.2107583662
1.1845928228
1.2257878795
1.2350227181
1.2271478402
1.2315766722
1.2006735714
1.2504296360
1.1942256669
1.1217310028
1.2424157593
1.2105089945
1.1201539535
1.1952724686
1.1739784728
1.1225024490
1.2252456808
1.2389514060
1.2040103162
1.1209086085
1.2500586469
1.2502867523
1.2442589745
1.1859584044
1.2144240334
1.2546830989
1.1232903567
1.2413370145
1.1104003635
1.2550084897
1.2402728752
1.1118747081
1.1187524914
1.1233762936
1.2486054758
1.1145251508
1.1768251099
1.2411743683
1.1105532728
1.2581639177
1.1213857987
1.2609962429
1.1097115770
1.2572320770
1.2576661027
1.2628622069
1.2355748959
1.2554833325
1.2611806295
1.1172617594
1.2610089288
1.1186355735
1.1113652939
1.2583352744
1.1087834682
1.1178299634
1.1188402963
1.2535358429
1.1194022253
1.1094890205
1.1211154206
1.2573909074
1.2605471025
1.1204679478
1.2617224307
1.1157869485
1.1212584751
1.2635394534
1.1149838965
1.2575128634
1.2633589357
1.1166852468
1.2534768912
1.1305639710
1.1174919858
1.1779615678
1.1202665532
1.1201465603
1.1271567081
1.2624870197
1.1206971343
1.1208002920
1.1424900294
1.2633180795
1.1185681319
1.1378748547
1.2631509761
1.2557998278
1.1129241903
1.1557438515
1.1505592586
1.2620285800
1.1208239519
1.1835095198
1.1203636154
1.2626262801
1.1684528805
1.1123204667
1.1069603593
1.1074455861
1.1635949089
1.1117800259
1.1383540044
1.1195909843
1.1124672183
1.1128290745
1.1067690925
1.1518891524
1.1084915692
1.1104312200
1.1265362563
1.1158578558
1.1750620120
1.2307494361
1.1176135051
1.2135132288
1.1861609930
1.2599549537
1.2471410582
1.1993708556
1.1787941357
1.2395110176
1.2615032072
1.2218012359
1.1928155818
1.2614917027
1.2572454184
1.2061462163
1.1434101306
1.1028308229
1.1163523548
1.1088415792
1.1390075936
1.1030060394
1.1081434899
1.1125268941
1.1054535785
1.1057663343
1.1103539941
1.1303817460
1.1024043762
1.1060141848
1.1047724654
1.1260091301
1.1082783636
1.1573222543
1.1532759151
1.1086895739
1.1080625828
1.1050245231
1.1128338265
1.2176882948
1.1157943089
1.1859717148
1.1971196752
1.2099545902
1.1901484809
1.2549838002
1.2578477087
1.1760701998
1.2606139587
1.2261872291
1.2429755878
1.1198767072
1.2351845538
1.2028458016
1.2098691466
1.1794893630
1.1915808761
1.2031384587
1.2176791057
1.1836406631
1.2433518481
1.2598299051
1.2583343715
1.2545336838
1.2349101527
1.2263279245
1.1963753598
1.0980345851
1.1059281248
1.1034485673
1.1015359431
1.1444707509
1.0979247841
1.1007714100
1.1054647985
1.1397259546
1.1098752702
1.0973691959
1.1011341435
1.1086938889
1.1040348049
1.1005066607
1.1303573988
1.1547189573
1.1588036601
1.1004890487
1.1253303044
1.1044270876
1.1036585085
1.1856545735
1.2001399627
1.1951294164
1.2585772971
1.1768670905
1.2380736979
1.2137353317
1.1137150202
1.2304345993
1.2549987826
1.1185234468
1.2064806136
1.1892810827
1.2214259126
1.2518027685
1.1904164511
1.1945312874
1.2003827387
1.2558253919
1.2064923144
1.2218336436
1.2388064251
1.2509784524
1.2574835282
1.1799083060
1.2135200220
1.1837153046
1.2298427374
1.0965799381
1.2388347427
1.1012813625
1.1411277385
1.1067822010
1.1009891913
1.1460245455
1.0919256761
1.0922150709
1.0953743862
1.0981913707
1.2214132288
1.1825344771
1.1569617299
1.1967643368
1.0951982287
1.0984979652
1.2245049169
1.0952552381
1.1811309867
1.1248637993
1.1001815293
1.2002057149
1.2082230054
1.2306304324
1.1040381163
1.1303686282
1.1605967976
1.0913282415
1.1754588117
1.1789166489
1.1880321803
1.0988275120
1.1870534958
1.2075233957
1.0956101697
1.2510842777
1.2097946625
1.2030398933
1.2476881392
1.0647335792
1.2324344596
1.1849707459
1.1774406193
1.2253281105
1.2557445395
1.1110768871
1.2165399522
1.1169058989
1.1883396663
1.1976383735
1.1930205907
1.0633444156
1.2541910678
1.1799383213
1.2032627057
1.1569466337
1.2463013732
1.2093620874
1.0526979174
1.0434913425
1.0445111143
1.1189795464
1.1889965431
1.2336083077
1.0981063626
1.2172191380
1.1398443029
1.2524435503
1.2243858545
1.1835795511
1.1927923494
1.0791247624
1.1976122257
1.1798729134
1.2075690780
1.1793098647
1.0905072317
1.2281364388
1.2214513756
1.1028674040
1.2022386953
1.1851198591
1.1742952235
1.1690448778
1.0888742836
1.2146715996
1.2254979633
1.1962849310
1.2418416494
1.0953992373
1.2018064438
1.1481211459
1.1849682825
1.2210161853
1.1913898181
1.2134995623
1.1836073790
1.1919867429
1.1932800492
1.2142466915
1.2358655725
1.1724115168
1.1758409491
1.1767363550
1.0887266343
1.1876585180
1.1728681219
1.0949460405
1.1882266004
1.1732655704
1.2015517132
1.1951442216
1.1856606535
1.2463782780
1.0988295147
1.1817474511
1.1313407762
1.1690427964
1.2113200405
1.2054736198
1.1789211207
1.2066126356
1.0925446643
1.1632377038
1.0828394125
1.2517922588
1.1158340946
1.2058248642
1.1918528198
1.1870393238
1.1322100842
1.0807751881
1.2424079266
1.0986510416
1.2199373377
1.1299976969
1.1777161320
1.1949923944
1.1987985528
1.0692600855
1.0888402718
1.0582283690
1.0519486742
1.1633006848
1.0805998388
1.2478664337
1.1820015787
1.1911349101
1.2278002165
1.0467093178
1.1999738873
1.0284897607
1.1704302421
1.1829823730
1.1952219927
1.0854151798
1.0526986177
1.0516141895
1.0882873336
1.1890908361
1.2125140731
1.0363776177
1.1712732197
1.1828696669
1.0523119356
1.0445125157
1.1189755761
1.1127429317
1.1907932196
1.0928764357
1.1737630472
1.1682976116
1.0467077793
1.1480615965
1.1723604866
1.0986467092
1.1709650339
1.0888397161
1.1800721049
1.1751251927
1.0849409834
1.0889583837
1.1480642642
1.1770765811
1.1727104414
1.2354015755
1.0754514914
1.1886722270
1.0186575440
1.1744646662
1.1652204957
1.1403784870
1.1902098471
1.0828351402
1.1818078774
1.0752529912
1.0807724134
1.1123951098
1.0854135934
1.0882825797
1.0928772054
1.1652189518
1.1633048653
1.0911774252
1.0248321167
1.0891814573
1.0537146456
1.0801378130
1.0347275860
1.1299976874
1.0717421590
1.0182546480
1.2114424345
1.0375078781
1.0741494731
1.1523141942
1.0812991628
1.1641951259
1.1579224690
1.0165898014
1.2002645483
1.2107937328
1.1199361001
1.0205651304
1.2054778847
1.0805964121
1.1341048516
1.2142670379
1.1127402566
1.1918571560
1.1680905484
1.2463661025
1.1026418223
1.1702315990
1.1787741825
1.1707269146
1.1851224661
1.0760930169
1.1771463461
1.1716026597
1.1723617479
1.1170717352
1.0699957621
1.2015690830
1.1712745590
0.9991470767
1.1692413606
1.0637557510
1.2358571033
1.2075908350
1.1882285329
0.9945927169
1.2418294747
1.1069787809
1.0395010817
1.1329443118
1.0032241511
1.1817520996
1.1381197725
1.0813121923
1.1951814303
1.0886075773
1.1520174313
1.0975133150
1.1950185276
1.0638705313
1.1962953067
1.0193404432
1.0704907942
1.1848646597
1.2214641782
0.9802629673
1.0529751437
1.0671836256
1.1809238255
0.9912221325
1.1716026810
1.0621347631
1.1667229895
1.0752510174
1.1026388565
1.1403777540
1.0754483014
1.2162679869
1.1690898649
1.0706939235
1.0849400224
1.0810480596
0.9831240060
1.1775604009
1.0812974841
1.0078513559
1.0704904199
0.9876347724
1.0224554229
1.1579226638
1.0889546830
1.1199342668
1.0741470535
1.1709211052
1.1807214624
1.1686926725
1.1676247209
1.0891819701
1.0539696439
1.0891951347
1.1232826915
1.1986311664
1.1769799638
1.1523130899
1.0355931827
1.1885502489
0.9935522434
1.0718646982
1.0710395798
1.0582422608
1.0109929840
1.1030696490
1.1435017072
1.0801340495
1.1682789482
1.0627961142
1.0770896894
1.0613674044
1.1670696252
1.1741579248
1.1834055069
1.1666008326
0.9766707500
1.0855075621
1.0657781667
1.0579255178
1.1874185449
1.1877220213
1.1123929142
1.0379739308
1.0894783562
0.9957063775
1.1697576322
0.9965964890
1.0082716666
1.1831484211
1.1800204064
1.0667122764
1.0479999260
1.1713798475
1.0318486054
1.0208710375
0.9919340284
1.1748548904
1.1822253816
1.1776015011
1.0151125455
1.0031635262
0.9881591369
0.9889621360
0.9949552538
1.1743221475
1.1765790988
1.1713504451
1.1724479629
1.0023518946
1.1788035157
1.1808790493
0.9858087790
1.1807171347
1.1782359440
0.9802711601
1.1819442804
1.0375098558
1.1811962855
1.0065898018
1.0073379530
1.1821474078
0.9912299793
1.1811585149
1.1848190742
1.0205708726
1.1856261942
1.0096475930
0.9904667962
1.1847337973
1.1898141046
1.0447535110
1.1301890809
1.1323424727
1.1323132636
1.1301510624
1.1330914717
1.1354802884
1.1292304882
1.1286843704
1.1367445642
1.1366128139
1.1387159648
1.1367141429
1.1312940098
1.1256304240
1.1336436066
1.1247880510
1.1286709106
1.1330809827
1.1226519862
1.1213535974
1.1311936654
1.1380065665
1.1249443087
1.1258772021
1.1176909275
1.1357746749
1.1265069411
1.1127395674
1.1313889020
1.1226961988
1.1199217501
1.1221872295
1.1411300895
1.1145034752
1.1256092068
1.1247813156
1.1280561450
1.1226375016
1.1385936039
1.1171779228
1.1321196374
1.1174127256
1.1449671376
1.1497216512
1.1333813518
1.1149913557
1.1241358792
1.1558421300
1.1357705642
1.1176846815
1.1393960428
1.1274843455
1.1295131076
1.1411217790
1.1296962170
1.1749131148
1.1197782581
1.1501412821
1.1199017898
1.1419532287
1.1255611826
1.1231079394
1.1654160721
1.1721562913
1.1144921654
1.1475353005
1.1461911940
1.1319012461
1.1565680926
1.1435633776
1.1370749324
1.1528121646
1.1427341887
1.1211958358
1.1565909109
1.1187188838
1.1496127561
1.1638964006
1.1635411668
1.1173850828
1.1405663649
1.1749103565
1.2251580046
1.2228051818
1.1230620595
1.1501324922
1.1551234755
1.1653424341
1.1455149173
1.1421246096
1.1289537062
1.1700422132
1.1638302577
1.2285927589
1.2186232921
1.1676375451
1.1509652227
1.1499805756
1.1638687503
1.1846878356
1.1886377917
1.1377847984
1.2002750890
1.1875145495
1.1607258026
1.1281142782
1.1977819150
1.1379343523
1.1388256681
1.1565798104
1.2140684865
1.1635378072
1.1611696556
1.1908143962
1.1987033611
1.2036665238
1.1991311289
1.1426253867
1.1315188134
1.2062207347
1.1570478044
1.1187144241
1.1970100886
1.1551059294
1.1700336552
1.1696223646
1.1675794093
1.2128795762
1.1760184284
1.2160064252
1.2295448925
1.1474260635
1.2228143977
1.1499358354
1.1794957585
1.2092564617
1.1762011092
1.2251753519
1.2199579224
1.2142222668
1.2060952446
1.1314296604
1.2212764336
1.2036780465
1.1970480006
1.1851634222
1.1875143587
1.1543592216
1.1310382983
1.1846894304
1.1570454493
1.1727976933
1.1579524560
1.2054556675
1.1977808122
1.2140614089
1.1226136343
1.1820741640
1.2019934049
1.1378513304
1.1927014380
1.1886418038
1.1905642254
1.1651969724
1.1897230101
1.1387201855
1.2205769315
1.2128868880
1.1794582345
1.1628582574
1.1761838542
1.1420314377
1.1760126162
1.2288074702
1.2082316482
1.2260912723
1.2037402304
1.1717089603
1.2436045345
1.2110786914
1.1716038685
1.1534497063
1.2223700864
1.1750280360
1.1789260432
1.2160416722
1.2328238022
1.2033205786
1.1695489713
1.2506361659
1.1820458948
1.2107543771
1.2350307482
1.2212715697
1.2020006186
1.2271483338
1.1727881087
1.1621112367
1.2214759230
1.1851659901
1.2131198299
1.1309660186
1.2365441823
1.1543038549
1.2257664683
1.1846305883
1.2054570537
1.2260877089
1.2506033069
1.1897225800
1.2223593031
1.1724049296
1.1952752577
1.2112622253
1.1716009013
1.1170962498
1.1789179426
1.2037441591
1.1496337905
1.1607746802
1.2335702248
1.2472744243
1.2285668433
1.1942429076
1.1808807103
1.2082719785
1.1201528849
1.2006821159
1.1419580636
1.2365354479
1.1859782496
1.2168549157
1.1146018642
1.2389650303
1.2228088746
1.2354198566
1.2151741420
1.1819493778
1.2306172667
1.2470385579
1.2395253159
1.2336115741
1.2383419162
1.1884950549
1.2252369949
1.2040086596
1.2215224444
1.2503075562
1.1913132574
1.2471621958
1.2130848107
1.1897090153
1.1170971464
1.2112753102
1.2329086818
1.1232910191
1.2413506237
1.2144103392
1.1186260201
1.1922951599
1.1768535828
1.2092367755
1.1233759434
1.2209952441
1.1146038620
1.2470166406
1.2315793676
1.2346517073
1.1130788313
1.1884904744
1.2354153334
1.2006734309
1.1213839831
1.2168969773
1.2486239688
1.1217793044
1.2504097807
1.2228109917
1.2411878917
1.2383307668
1.1831746759
1.1224797785
1.1669292425
1.2059304180
1.2586413974
1.2471393065
1.2329128534
1.1115632597
1.2537445148
1.2434811212
1.2394623601
1.2105205719
1.2131450931
1.2572468409
1.1217300337
1.2430369183
1.2424027061
1.1246033051
1.1097050056
1.2576832442
1.2355881502
1.1130801957
1.1217811016
1.1094919255
1.1188368477
1.2210043467
1.2600435765
1.1224807414
1.1200669760
1.2595360744
1.2022862585
1.2092843855
1.1225036192
1.2500415344
1.1113778967
1.1201602002
1.1739524329
1.2442447451
1.1254422293
1.1087796992
1.2476544346
1.2583533388
1.1209107965
1.2610220802
1.2394490846
1.1104058182
1.2546672510
1.2582544455
1.1987347188
1.2434548637
1.2542590967
1.2549903039
1.2617344544
1.1265481143
1.1137661240
1.2402594776
1.1246017284
1.2059827788
1.1115695377
1.2586261222
1.1668976701
1.2430233351
1.2574105278
1.2487268996
1.2537268860
1.2605604222
1.1157829533
1.2609833850
1.1174877293
1.1944721449
1.1201623206
1.1200699279
1.2506668444
1.2602081006
1.2621153203
1.1145012658
1.2581448157
1.1105513541
1.1166810151
1.2595194560
1.1254406040
1.2023187193
1.1160104319
1.1187556813
1.2535004039
1.2476382704
1.1150091434
1.2454110881
1.1118632707
1.2600286242
1.1189443125
1.1206941735
1.2554631387
1.2611673128
1.1137701797
1.1911278571
1.2582370728
1.1242638730
1.1265466909
1.1987656115
1.1202629657
1.2542390912
1.2628522822
1.1172657551
1.2487117337
1.1272077233
1.1863072345
1.2631599441
1.1193630144
1.1189480408
1.2506380121
1.2558275141
1.1160143089
1.2621039847
1.2453963772
1.2560388159
1.1195985804
1.2601926173
1.1944829621
1.1197680301
1.2633277190
1.2524366752
1.1178339582
1.2535114187
1.1379269002
1.2593556969
1.1186393453
1.1835169464
1.2632869554
1.1204712940
1.1203595891
1.1212195813
1.2626355239
1.1911371700
1.1211176578
1.1208196380
1.1242638922
1.1506003959
1.2628190817
1.2633499066
1.1150765578
1.1196025013
1.1197712669
1.1195870739
1.2593381496
1.2560137139
1.1143582749
1.2533209806
1.1305181945
1.2524215707
1.2635309488
1.1863026409
1.1190546931
1.1196627395
1.2574875330
1.1124634133
1.1636209398
1.1424503364
1.2615140954
1.2632783295
1.1208045861
1.2628094358
1.2616436741
1.2625853218
1.1779476132
1.1201501796
1.2624768331
1.1750740516
1.1103502902
1.1057708209
1.1109281836
1.1054508195
1.1557186561
1.1196672277
1.1651348726
1.1173809561
1.1125452636
1.1087449751
1.1150807734
1.1434293246
1.1185724590
1.1175303095
1.2532839670
1.1129290728
1.1144446121
1.1050243871
1.1066203439
1.1573317978
1.1080734377
1.1082751079
1.1304074661
1.1190592237
1.1163476283
1.1143627565
1.2602449233
1.1699095056
1.1684414922
1.2616321278
1.2262819303
1.1199015905
1.2625753128
1.2097997678
1.1836481720
1.2583571996
1.2433865893
1.2530633091
1.1963512508
1.1760744825
1.2351826131
1.2620162664
1.2176166519
1.1901453439
1.2606303551
1.2500994034
1.2550200886
1.2027969970
1.1383246524
1.1015409763
1.1042573382
1.1158623593
1.1098883137
1.1444776054
1.1087490166
1.1651251617
1.1109326695
1.1142331889
1.1665135783
1.1007717115
1.1059253158
1.1173850258
1.1117616347
1.1074491791
1.1069562544
1.1123248277
1.1265050637
1.1005088656
1.1036567176
1.1175349918
1.1044359738
1.1303708397
1.1104353234
1.1518678935
1.1588021050
1.1019098651
1.1106262298
1.1084807990
1.1066237333
1.1067702577
1.1144493845
1.2218523986
1.1185388891
1.1711074088
1.1837195710
1.1945188163
1.2064326881
1.1928265002
1.2500534841
1.2572189156
1.2558546144
1.1787899918
1.2614793988
1.2496174499
1.2217685230
1.2388204754
1.1175871935
1.2602290160
1.2394903494
1.2061989509
1.2135768660
1.1768624597
1.1892829224
1.2001048016
1.2136612015
1.1861576946
1.2470998298
1.2530238928
1.2585983673
1.1699104914
1.2599407125
1.2518442732
1.2304048222
1.2461535777
1.2307667082
1.1994026121
1.0965851542
1.0992618110
1.1081470473
1.1142372218
1.1009876658
1.1028258762
1.1389922790
1.1678445067
1.0953765189
1.1665159002
1.1030066557
1.1067915974
1.1460226850
1.1088282444
1.1042591416
1.0952016006
1.0984978328
1.1106308032
1.1062270397
1.1024027482
1.1259902679
1.1605880476
1.0965860719
1.1532685537
1.1019107958
1.1001891054
1.1303738523
1.1047635335
1.1060168241
1.1835775459
1.2031854270
1.1927874628
1.2598136337
1.1794908251
1.2336010871
1.2177487482
1.1169149981
1.2349144598
1.2461128606
1.2453021749
1.2524732182
1.1722561755
1.1157768456
1.2032225387
1.1915861135
1.2171591645
1.2544981435
1.1883409549
1.1971434167
1.1976183145
1.2578268400
1.1711166092
1.2413220919
1.2100213286
1.2262333093
1.2429437149
1.2477233585
1.2557673611
1.1774300796
1.2097375992
1.1859690360
1.2252866112
1.2495732881
1.2281362103
1.1849656198
1.1692812428
1.2022269204
1.0980296867
1.0992614256
1.2342805447
1.2182322320
1.1028739482
1.1810395269
1.1481156478
1.1054546552
1.1948956135
1.2146618040
1.2304198512
1.1034507429
1.1397212718
1.1678558945
1.0888771529
1.0905123280
1.0979233140
1.1798697158
1.1759128234
1.1919814716
1.0953989304
1.1862327023
1.2059231569
1.0934711736
1.2262480984
1.1843670508
1.1632285424
1.2002562158
1.0973663009
1.1011348732
1.2392663429
1.2195992919
1.0949524052
1.1832286003
1.1313411285
1.1004815643
1.1963735621
1.2124512989
1.2354043695
1.1062309816
1.1253199187
1.1547226200
1.0903015383
1.0887304118
1.0965850234
1.1784889013
1.1771515469
1.1906926225
1.1012818354
1.1901680508
1.2119596485
1.0925456980
1.0742244896
1.2478890114
1.1739317470
1.2135854584
1.1363740814
1.2399682141
1.1999516614
1.2509418818
1.0582282610
1.0514560775
1.0478389897
1.2277845485
1.0284859535
1.0939495153
1.1829770137
1.2412983865
1.1799144451
1.1131115180
1.2298698589
1.1542073461
1.2574642094
1.1158387278
1.2124734531
1.1137032897
1.1904179703
1.2004161378
1.0571497770
1.1907910170
1.0523113795
1.2518117566
1.1777062622
1.2065344931
1.1520201714
1.2424291445
1.2057901226
1.2452676752
1.0661376674
1.0592493602
1.0332447926
1.2355376231
1.0337053053
1.1099900971
1.1870379757
1.2380631461
1.1722683407
1.0886096599
1.2214831632
1.1322134378
1.2549728198
1.2199030456
1.1856540479
1.1951432289
1.0692608010
1.1949827058
1.1816794929
1.1923741087
1.2114823184
1.2335800932
1.1751249555
1.1810426689
1.1770745418
1.1765046423
1.0922103897
1.2329413621
1.1832232239
1.2261284798
1.2329453981
1.1707921304
1.1012734756
1.2060975155
1.1870296984
1.1759131544
1.1871643486
1.1722727513
1.1736692445
1.0919233211
1.2192683740
1.2304163559
1.1993378272
1.2002592882
1.2060825896
1.1902054768
1.2457620509
1.0981920708
1.1793914693
1.2059315931
1.1411300783
1.1754597808
1.1742960929
1.2114400976
1.2107902099
1.1871667729
1.1818052013
1.2161041643
1.1949025646
1.2182351307
1.2018673725
1.0934694761
1.1692936314
1.1862358620
1.1950893358
1.2254985183
1.1825378607
1.1971363850
1.2185952541
1.2017996718
1.2402957359
1.1732822917
1.1789191882
1.1773104929
1.1793950221
1.0913250294
1.2342740322
1.1841673546
1.2288505664
1.1729559674
1.0952486553
1.2082347169
1.1904404516
1.1697956941
1.1697976490
1.1746901053
1.0902994655
1.2214162903
1.2245069225
1.2050309435
1.1991221552
1.1890837099
1.2495817454
1.1012847350
1.1836524047
1.1836044245
1.2002143827
1.1248599865
1.1722724608
1.2162663588
1.2099334097
1.1880351508
1.1813494767
1.2210160954
1.1901728578
1.2119670105
1.2023854545
1.0956093706
1.1569710717
1.1832316151
1.1967732497
1.0848649257
1.2541720313
1.1809200957
1.1950136135
1.2355305753
1.1110694974
1.0519493853
1.2094088470
1.0337080449
1.1702309086
1.1944737227
1.1889969402
1.1398404033
1.1951767438
1.0864496432
1.0514571238
1.0845125905
1.2462744857
1.0426980507
1.0958675211
1.1885451083
1.2244185982
1.0369645543
1.1705942375
1.1870688571
1.0742230628
1.0434930614
1.1350459333
1.1350417056
1.1229427533
1.1799461045
1.1976315695
1.2025907578
1.0791230817
1.1150638448
1.0921490102
1.0647331217
1.1771424134
1.1688449716
1.0437400562
1.0309067787
1.1572741195
1.0433488524
1.1751367152
1.0837515378
1.2510596521
1.1848600146
1.1945911262
1.2324412480
1.0526567905
1.2030749206
1.0332479537
1.1707274570
1.1849728417
1.1150607707
1.1986272161
1.0890824218
1.0592494124
1.0826221757
1.2399513649
1.0394993184
1.0885967787
1.1919253924
1.2165874285
1.0437422515
1.1733961037
1.1861608001
1.0633438793
1.0478397607
1.1099869534
1.0599446999
1.1073407841
1.1739415754
1.1930269675
1.2024870512
1.0571500891
1.0956899451
1.0661372166
1.0493094029
1.1699131051
1.1684262047
1.0583700099
1.0369613683
1.1406185439
1.1745111617
1.1304314090
1.0864475383
1.0958618924
1.1707916003
1.0921486081
1.1832261742
1.1724106611
1.1699196980
1.0703060435
1.1757531900
1.0105386855
1.0809200596
1.0350044291
1.2154952061
1.0925745370
1.1789253552
1.0357609461
1.1406216789
1.0865577904
1.1789280674
1.1906965028
1.1736702365
1.0214552715
1.2192596796
1.2392615197
1.1709655596
1.1784920288
1.2154976775
1.0482041196
1.0731987756
1.1923786870
1.2124651942
1.1641851146
1.0267534798
1.1816752912
1.0779789393
1.1765065076
1.1870569458
1.1672580325
1.1516186073
1.2134957474
1.1698340585
1.0076550398
1.2388276084
1.1978536172
1.1771526012
1.1939453918
1.2069391312
1.1465559791
1.0215978887
1.1939503740
1.2044677894
1.0848607049
1.1107216214
1.1847937971
1.0707340600
1.0845101665
1.2075299970
1.1072336309
1.0890808390
1.0885913442
1.1653267461
1.0956916089
1.1793973257
1.1672563789
1.1744632127
1.1572801267
1.0862826522
1.1758422149
1.0158001282
1.0858171319
1.0479988477
1.0809671897
1.0277301326
1.1229416809
1.0669134722
1.1793074511
1.1789234256
1.1728683634
1.0073321987
1.2306278735
1.1886680216
1.2161055391
1.0300687342
1.0703652696
1.1876624258
1.1500735567
1.0151783928
1.0769302229
1.1746916954
1.2069359911
1.1653277693
1.1637771406
1.1630949416
1.0065831542
1.1971413225
1.2066164701
1.1271910220
1.0112396361
1.1951491943
1.2018717407
1.0837484909
1.1296711581
1.1856639689
1.0731548648
1.0826198965
1.2186193626
1.1073365536