<VTKFile type="UnstructuredGrid" version="0.1">
	<UnstructuredGrid>
		<Piece NumberOfPoints="1862" NumberOfCells="3498">
			<CellData>
				<DataArray type="Int32" Name="type" NumberOfComponents="1" Format="ascii">
0
0
0
0
0
0
0
0
0
0
0
0
0
0
0
0
1
0
0
1
0
0
0
0
0
0
0
0
0
0
0
0
0
1
0
0
0
0
0
0
0
0
0
0
0
0
0
0
0
0
1
0
0
0
0
0
0
0
0
0
0
1
0
0
0
0
0
0
0
0
0
0
0
0
0
0
0
0
0
0
0
0
0
0
0
0
0
0
0
0
0
0
0
0
0
0
0
0
0
0
0
0
0
0
0
0
0
0
0
0
0
0
0
0
0
0
0
0
0
0
0
0
0
1
0
0
0
0
0
0
0
0
0
0
0
0
0
0
0
0
0
0
0
0
0
0
0
0
0
0
0
1
0
1
1
0
0
0
0
0
0
0
0
0
0
0
0
0
1
0
1
0
0
0
0
1
0
0
0
0
0
0
0
0
1
1
0
0
0
0
0
1
0
0
0
0
0
0
0
0
1
0
0
0
0
0
0
0
0
0
0
0
0
0
0
0
0
0
0
0
0
0
0
0
0
0
0
0
0
0
0
0
0
1
0
0
0
0
0
0
0
0
0
0
0
0
0
0
0
0
0
0
0
0
0
0
0
0
0
0
0
0
0
0
0
0
0
0
0
0
0
0
0
0
0
0
0
0
0
0
0
1
0
0
0
0
0
0
0
0
0
0
0
0
0
0
0
0
0
0
0
0
0
0
0
0
0
0
0
0
0
0
0
0
0
0
0
0
0
0
0
0
0
0
0
0
0
0
0
0
0
0
1
0
0
0
0
0
0
0
0
0
0
0
0
0
0
0
0
0
0
0
0
0
0
0
0
0
0
0
0
0
0
0
0
0
0
0
0
0
0
0
0
0
0
0
0
0
0
0
0
0
0
0
0
0
0
0
0
0
1
0
0
0
0
0
0
0
0
0
0
0
0
0
0
0
0
0
0
0
0
0
0
0
0
0
0
0
0
0
0
0
0
0
0
0
0
0
0
0
0
0
0
0
0
0
0
0
0
0
0
0
0
0
0
0
0
0
0
0
0
0
0
0
0
0
0
0
0
0
0
0
0
0
0
0
0
0
0
0
0
0
0
0
0
0
0
0
0
0
0
0
0
0
0
0
0
0
0
0
0
0
0
0
0
0
0
0
0
0
0
0
0
0
0
0
0
0
0
0
0
0
0
0
0
0
0
0
0
0
0
0
0
1
0
0
0
0
0
0
0
0
0
0
0
0
0
0
0
0
0
0
0
1
0
0
0
0
0
0
0
0
0
0
0
0
0
0
0
0
0
0
0
0
0
0
0
0
0
0
0
0
0
0
0
0
0
0
0
0
0
0
0
0
0
0
0
0
0
0
0
0
0
0
0
0
0
1
0
0
0
0
0
0
0
0
0
0
0
0
0
0
0
0
0
0
0
0
0
0
0
1
0
0
0
0
0
0
0
0
0
0
0
0
0
0
0
0
0
0
0
1
0
0
0
1
0
0
0
0
0
0
0
0
0
0
0
0
0
0
0
0
0
0
0
0
0
0
0
0
0
1
0
0
0
0
0
0
0
1
0
0
0
0
0
0
0
0
0
0
0
0
0
0
0
0
0
0
0
0
0
0
0
0
0
0
1
0
0
0
0
0
0
0
1
0
0
0
0
0
0
1
0
0
0
0
0
0
0
0
0
0
0
0
0
0
0
0
0
0
0
0
0
0
0
0
0
0
0
0
0
0
0
0
0
0
0
0
0
0
1
0
0
0
0
0
1
0
0
0
0
0
0
0
1
0
0
0
0
0
0
0
0
0
0
0
0
0
1
0
0
0
0
0
0
0
0
0
0
0
0
0
0
0
0
0
0
0
0
0
0
0
0
0
0
0
0
0
0
0
0
0
0
0
0
0
0
0
0
0
0
0
0
0
0
0
0
0
0
0
0
0
1
0
0
0
0
0
0
0
0
0
0
0
0
0
0
0
0
0
0
0
1
0
0
0
0
0
0
0
0
0
1
0
0
0
0
0
0
0
0
0
0
0
0
0
0
0
0
0
0
0
0
0
0
0
0
0
0
0
0
0
1
0
1
0
0
0
0
0
0
0
0
0
0
0
0
0
0
0
0
0
0
0
0
0
0
0
0
0
0
0
1
0
0
0
1
0
0
0
0
0
0
0
0
0
0
0
0
0
0
0
0
0
0
0
0
0
0
0
0
0
0
0
0
1
0
0
0
0
0
0
0
0
0
0
0
0
0
0
0
0
0
0
0
0
0
0
0
0
0
1
0
0
0
0
0
0
0
0
0
0
0
0
0
0
0
0
0
0
0
0
0
0
0
1
0
0
0
0
0
0
1
0
0
0
0
0
0
0
0
0
0
0
1
0
0
0
0
0
0
0
0
0
0
0
0
0
0
0
0
0
0
0
0
1
0
0
0
0
0
0
0
0
0
0
0
1
0
0
0
0
0
0
0
0
0
0
0
0
0
0
0
0
0
0
0
0
0
1
0
0
0
0
0
0
0
0
0
1
1
0
1
0
1
0
0
0
0
0
0
0
0
0
0
0
1
0
0
0
0
0
1
1
0
0
0
0
0
0
1
0
0
0
0
0
1
1
1
0
0
0
0
0
0
0
0
0
0
0
0
1
1
0
0
1
0
0
0
0
0
1
0
0
0
1
0
1
0
0
0
0
0
0
0
1
0
0
0
0
0
0
0
1
0
0
1
0
0
0
0
0
0
0
0
0
0
0
0
0
0
0
1
0
0
0
0
0
0
0
0
0
0
0
0
0
0
0
0
0
0
0
0
0
0
0
0
0
0
0
0
0
0
0
0
0
0
0
0
1
0
0
0
0
0
0
1
0
0
0
1
0
0
0
0
0
0
0
0
0
0
0
1
0
0
0
0
0
0
0
0
0
0
0
0
0
0
0
0
0
0
0
0
0
0
0
0
0
0
0
0
0
0
0
0
0
0
0
0
0
0
0
0
1
1
0
0
0
0
0
0
0
0
0
0
0
0
0
1
0
0
0
0
0
0
0
0
0
0
0
0
0
0
0
0
0
0
0
0
0
0
0
0
0
0
0
0
0
0
0
0
0
0
0
0
0
0
0
0
0
0
0
0
0
0
0
0
0
0
0
0
0
0
0
0
0
0
0
0
0
0
0
0
0
0
0
0
0
0
0
0
1
1
0
0
0
0
0
0
0
0
1
0
0
0
0
0
0
0
0
0
0
0
0
0
0
0
0
0
0
0
0
0
0
0
1
0
0
0
0
0
0
0
0
0
0
0
0
0
0
0
0
1
0
0
0
0
0
0
0
0
0
0
0
0
0
0
0
0
0
0
0
0
0
0
0
0
0
0
0
0
0
0
0
0
0
0
0
0
0
0
0
0
0
0
0
0
0
0
0
0
0
0
0
0
0
0
0
0
0
0
0
0
0
0
0
0
0
0
0
0
0
0
0
0
0
0
0
0
0
0
0
0
0
0
0
0
0
0
0
0
0
0
1
1
0
0
0
0
0
1
0
0
0
0
0
0
0
0
0
0
0
0
1
0
0
0
0
0
0
0
0
0
0
0
0
0
0
0
0
0
0
0
0
0
0
0
0
0
0
0
0
0
0
0
0
0
0
0
0
0
0
0
0
0
0
0
0
0
0
0
0
0
0
0
0
0
1
0
1
0
0
0
0
0
0
0
0
0
0
0
0
0
0
0
0
0
0
1
0
0
0
0
0
0
0
0
0
0
0
0
0
0
0
0
0
0
0
0
0
0
0
0
0
0
0
0
0
0
0
0
0
0
0
0
0
0
0
0
0
0
0
0
0
0
0
0
0
0
0
0
0
0
0
0
0
0
0
0
0
0
0
0
0
0
0
0
0
0
1
0
0
0
0
0
0
0
0
0
0
1
0
0
0
0
0
0
0
0
0
0
0
0
0
0
0
0
0
0
0
0
0
0
0
0
0
0
0
0
0
0
0
0
0
0
0
0
0
1
0
0
0
0
0
0
0
0
0
0
0
0
0
0
0
0
0
0
0
0
0
0
0
0
0
0
0
0
0
0
0
0
0
0
0
0
0
0
0
0
0
0
0
0
0
0
0
0
0
0
0
0
0
0
0
0
0
0
0
0
0
0
0
0
0
0
0
0
0
0
0
0
0
0
0
0
0
0
0
0
0
1
0
0
0
0
0
0
0
0
0
0
0
0
0
0
0
0
0
0
0
0
0
0
0
0
0
0
0
0
0
0
0
0
0
0
0
0
0
0
0
0
0
0
0
0
0
0
0
0
0
0
0
0
0
0
0
0
0
0
0
0
0
0
0
0
0
0
0
0
0
0
0
0
0
0
0
0
0
0
0
0
0
0
0
0
0
0
0
0
0
0
0
0
0
0
0
0
0
0
0
0
0
0
0
0
0
0
0
0
0
0
0
0
0
0
0
0
0
0
0
0
0
0
0
1
0
0
0
0
0
0
0
0
0
0
0
0
0
0
0
0
0
0
0
0
0
0
0
0
0
0
0
0
0
0
0
0
0
0
0
0
0
0
0
0
0
0
0
0
0
0
0
0
0
0
0
0
0
0
0
0
0
0
0
0
0
0
0
0
0
0
0
0
0
0
0
0
0
0
0
0
0
0
0
0
0
1
0
0
0
0
0
0
0
1
0
0
0
0
0
0
0
0
0
0
0
0
0
0
0
0
0
0
0
0
0
0
0
0
0
0
0
0
0
0
0
0
0
0
0
0
0
1
0
0
0
0
0
0
0
0
0
0
0
0
0
0
0
0
0
0
0
0
0
1
0
0
0
0
0
0
0
0
0
0
0
0
1
1
0
0
0
0
0
0
0
0
0
0
0
0
0
0
0
1
1
0
1
0
0
0
0
0
0
0
0
0
1
0
0
0
0
0
0
1
0
0
0
0
0
0
0
0
0
0
1
0
0
0
0
1
0
1
0
0
0
0
0
0
0
1
0
0
0
1
0
0
0
1
0
1
1
0
0
1
1
0
0
0
1
0
0
0
1
0
0
0
0
0
0
0
0
0
1
0
0
0
0
0
0
1
0
0
0
0
0
0
0
0
0
0
0
0
0
0
0
0
0
0
0
0
0
0
0
0
0
0
0
1
0
0
1
0
0
0
0
0
0
0
0
0
0
0
0
0
0
0
0
0
0
1
0
0
1
0
0
0
0
0
0
0
0
0
0
0
1
0
0
1
0
0
0
0
0
0
0
0
0
0
0
1
1
0
0
0
0
0
0
0
0
0
0
0
0
1
0
0
0
0
0
0
0
0
0
0
0
0
0
0
0
0
0
1
0
0
0
0
0
0
0
0
0
0
0
0
0
0
0
0
0
1
0
0
0
0
0
0
0
0
0
0
0
0
0
0
0
0
0
0
0
0
0
0
0
0
0
0
0
0
0
0
0
0
0
0
0
0
0
0
0
0
1
0
0
0
0
0
0
0
0
0
0
0
0
0
0
0
0
0
0
0
0
0
0
0
0
0
0
0
0
0
0
0
0
0
0
0
0
0
0
0
0
0
0
0
0
0
1
0
0
0
0
0
0
0
0
0
0
0
0
0
0
0
0
0
0
0
0
0
0
0
0
0
0
0
0
0
0
0
0
0
0
0
0
0
0
0
0
0
0
0
0
0
0
0
1
0
0
0
0
0
0
0
0
0
0
1
0
0
0
0
0
0
0
0
0
0
0
0
0
0
0
1
0
0
1
0
0
0
0
0
0
0
0
0
0
0
0
0
0
0
0
0
0
0
0
0
0
0
1
0
0
0
0
0
0
0
0
0
0
0
0
0
0
0
0
0
0
0
0
0
0
0
0
0
0
0
0
0
0
0
0
0
0
0
1
0
0
0
0
0
0
0
0
0
0
0
0
0
0
0
0
0
0
0
0
0
0
0
0
0
0
0
0
0
0
0
0
0
0
0
0
0
0
0
0
0
0
0
0
0
0
0
0
0
0
0
0
0
0
0
0
0
0
0
0
0
0
0
0
0
0
0
0
0
0
0
0
0
0
0
0
1
0
0
0
0
0
0
0
0
0
0
0
0
0
0
0
0
0
0
0
0
0
0
0
0
0
0
0
0
0
0
0
0
0
0
0
0
0
0
0
1
0
0
0
0
0
0
0
0
0
0
0
0
1
1
0
0
0
0
0
0
0
0
0
0
0
0
0
0
0
0
0
0
0
0
0
0
0
0
0
0
0
0
0
0
0
0
0
0
0
0
0
0
0
0
0
0
0
0
0
0
0
0
0
0
0
0
0
0
0
0
0
0
0
0
0
0
0
0
0
0
0
0
0
0
0
0
0
0
0
0
0
0
0
0
0
0
0
0
0
0
0
0
0
0
0
0
0
0
0
0
0
0
0
0
0
1
0
1
0
0
0
0
0
0
0
1
1
1
1
0
0
0
0
0
0
0
0
0
0
0
0
0
0
0
0
0
0
0
0
0
0
0
0
0
0
0
0
1
1
0
0
0
0
0
0
0
0
0
0
0
0
0
0
0
0
0
0
1
0
0
0
0
0
0
0
1
1
0
1
1
0
0
1
0
0
0
0
0
0
0
1
0
1
0
0
0
0
0
0
0
0
0
0
0
0
0
0
0
0
0
0
0
0
0
0
0
0
0
0
0
1
1
0
0
0
1
1
0
0
0
0
1
0
0
1
0
1
0
0
0
0
0
1
0
0
0
1
0
0
0
0
0
0
0
0
0
0
0
0
0
0
0
0
0
0
0
0
0
0
0
0
0
0
0
1
0
0
0
0
0
0
1
0
0
0
0
0
0
0
0
0
0
0
0
0
0
0
0
0
0
0
0
0
0
0
0
0
0
0
0
0
1
0
1
0
0
0
0
0
0
0
1
0
0
0
0
0
0
0
0
0
0
0
1
0
0
0
0
0
0
0
0
0
1
0
0
0
0
0
0
0
1
0
0
0
0
0
0
0
1
0
0
0
0
0
0
0
0
0
0
0
0
0
0
0
0
0
0
0
1
0
1
0
0
0
0
0
1
0
0
0
0
0
0
0
0
0
0
0
0
0
0
0
0
0
0
0
0
0
0
0
0
0
1
0
1
0
0
0
0
0
0
0
0
0
1
0
0
0
0
0
1
0
0
0
0
0
0
0
0
0
0
0
0
0
0
0
1
0
0
0
0
0
0
0
0
1
0
0
0
0
0
0
0
0
0
0
0
0
0
0
0
0
0
0
0
0
0
0
0
0
0
0
0
0
0
0
1
0
0
0
0
0
0
0
0
0
0
0
0
0
0
0
0
1
0
0
0
0
0
0
0
0
1
0
0
0
0
0
0
0
0
0
1
0
0
0
0
0
1
0
0
0
0
0
0
0
0
0
0
0
0
0
0
0
0
0
0
0
1
0
0
0
0
0
0
1
0
0
0
0
0
0
0
0
1
0
0
0
0
0
0
0
0
0
0
0
0
0
0
1
0
0
1
0
0
0
1
0
0
0
0
0
0
0
0
0
0
0
0
0
0
0
0
1
0
0
0
0
0
0
0
0
0
0
1
0
1
0
0
0
0
0
0
1
0
0
0
0
0
0
0
0
0
0
0
0
0
0
0
0
0
0
0
0
0
0
0
0
0
0
0
1
1
0
0
0
0
0
0
1
0
0
0
0
0
0
0
0
0
0
0
0
0
1
0
0
0
0
0
0
0
1
0
0
0
0
0
0
0
0
0
0
0
0
0
0
0
0
0
0
0
0
0
0
0
0
0
0
0
1
0
0
0
0
0
0
0
0
0
0
1
0
0
1
0
0
0
0
0
0
0
0
0
0
0
0
0
0
0
0
0
0
0
0
0
0
0
0
0
0
0
0
0
1
0
0
0
0
0
0
0
1
0
0
0
0
0
0
0
1
0
0
0
0
1
0
0
0
0
0
0
0
0
0
0
0
1
0
1
0
0
0
1
0
				</DataArray>
				<DataArray type="Float64" Name="h" NumberOfComponents="1" Format="ascii">
1.1564547116
1.1564523678
1.1579405275
1.1566900171
1.1580369297
1.1578119625
1.1572146042
1.1560592368
1.1570036055
1.1552928633
1.1563409591
1.1575122417
1.1557921907
1.1559178432
1.1561343114
1.1550494252
1.1570757593
1.1553227696
1.1563494419
1.1562462773
1.1585669299
1.1558632427
1.1571100535
1.1588312199
1.1566425682
1.1548556866
1.1563173363
1.1601051167
1.1580247807
1.1556053564
1.1559005185
1.1573097673
1.1556602257
1.1580113045
1.1610466416
1.1590483027
1.1597739228
1.1571448541
1.1597967530
1.1589184964
1.1581816825
1.1606270514
1.1565647468
1.1581322907
1.1591810136
1.1594320794
1.1573997227
1.1619126787
1.1724116327
1.1709744332
1.1591368843
1.1592094345
1.1583574649
1.1644397186
1.1603636127
1.1565633953
1.1596846501
1.1636144484
1.1646092806
1.1639079566
1.1662555668
1.1653155835
1.1713642760
1.1594233385
1.1584824318
1.1617536804
1.1695250322
1.1699102597
1.1653924850
1.1644100036
1.1645776511
1.1606358707
1.1570863514
1.1655705633
1.1650280905
1.1603020939
1.1637630990
1.1663811901
1.1627250397
1.1603547620
1.1681431197
1.1627796660
1.1768118819
1.1684252340
1.1591070518
1.1617010398
1.1690922813
1.1669613525
1.1672019670
1.1757375592
1.1700880027
1.1606848788
1.1672716715
1.1744565677
1.1632113270
1.1620731109
1.1654094735
1.1594329132
1.1605742357
1.1692683393
1.1758694576
1.1681000998
1.1647617724
1.1626773886
1.1546724051
1.1682930842
1.1634829490
1.1735891359
1.1664002218
1.1635479149
1.1732663362
1.1746540459
1.1688013896
1.1706010247
1.1662127514
1.1738568176
1.1650451102
1.1550197976
1.1728934630
1.1676640662
1.1546947091
1.1657261806
1.1617991777
1.1545781707
1.1693923174
1.1737754247
1.1664754150
1.1543494703
1.1727205333
1.1743242294
1.1719930413
1.1639508547
1.1679272331
1.1734122382
1.1550157431
1.1720091204
1.1544290121
1.1742881637
1.1699841300
1.1551218709
1.1541631785
1.1548124308
1.1728316960
1.1556608412
1.1622781696
1.1710179202
1.1546981915
1.1767933971
1.1545614981
1.1773321497
1.1542861575
1.1742001691
1.1750041683
1.1768409063
1.1690855190
1.1753096809
1.1756787037
1.1543796673
1.1768721928
1.1538418391
1.1553369761
1.1764272424
1.1545002888
1.1540371714
1.1543233351
1.1759605805
1.1562872821
1.1548959445
1.1543403392
1.1757771613
1.1753305348
1.1539744369
1.1762768988
1.1542223514
1.1565364694
1.1765945468
1.1558783870
1.1781503605
1.1765314006
1.1539688123
1.1753809317
1.1573192677
1.1537532597
1.1624066875
1.1538086993
1.1539481441
1.1570378828
1.1768787598
1.1542211793
1.1537850603
1.1582483173
1.1765738572
1.1536769089
1.1579424087
1.1764454429
1.1775962060
1.1539134467
1.1593771768
1.1589987923
1.1781107892
1.1537543846
1.1636317817
1.1538773026
1.1773527108
1.1607649751
1.1535818343
1.1547691878
1.1541546563
1.1602663137
1.1556697956
1.1578522723
1.1537829794
1.1538109697
1.1534939819
1.1544325086
1.1589106296
1.1551753192
1.1537275888
1.1569825691
1.1535855032
1.1618336077
1.1755110928
1.1562630778
1.1723956816
1.1643721085
1.1789614823
1.1777860065
1.1685726883
1.1624629127
1.1767753478
1.1781216270
1.1740389798
1.1664391092
1.1786520091
1.1789045531
1.1705514083
1.1581678980
1.1548438005
1.1534678772
1.1556884866
1.1577663630
1.1542233097
1.1536494001
1.1558852728
1.1543056747
1.1549604762
1.1536696864
1.1572453991
1.1545117959
1.1537988193
1.1552291530
1.1569218097
1.1538584505
1.1593168392
1.1588295339
1.1536061016
1.1553779297
1.1546034612
1.1534952652
1.1737569511
1.1562425971
1.1644775998
1.1688060324
1.1729396888
1.1657574483
1.1790456965
1.1798816648
1.1618374115
1.1789506587
1.1763512969
1.1787397483
1.1564988703
1.1766569822
1.1700134840
1.1720069125
1.1624954385
1.1666101186
1.1709389912
1.1747594558
1.1637171736
1.1777497032
1.1795304040
1.1791873048
1.1798545885
1.1776894497
1.1753146297
1.1678860864
1.1549532639
1.1537727546
1.1537755488
1.1550441322
1.1581032993
1.1543570574
1.1544108345
1.1557319154
1.1577069477
1.1559044652
1.1546381886
1.1539248373
1.1536072671
1.1537726568
1.1547063001
1.1571924706
1.1587756084
1.1592644406
1.1553113512
1.1568830912
1.1554358721
1.1539532401
1.1645828174
1.1703248164
1.1690799971
1.1798704763
1.1618419948
1.1797074046
1.1743974579
1.1562423800
1.1775518348
1.1808740663
1.1564765526
1.1734827145
1.1658982732
1.1771628211
1.1800229616
1.1667927315
1.1681109309
1.1713392413
1.1801407555
1.1724537223
1.1761061931
1.1787049986
1.1808617529
1.1804867471
1.1625429329
1.1754428771
1.1637809807
1.1785957688
1.1551698647
1.1841638916
1.1558228720
1.1576974110
1.1559562198
1.1539262012
1.1580693473
1.1545541676
1.1551199220
1.1545686059
1.1539534719
1.1836331686
1.1667978063
1.1587754356
1.1769210727
1.1548531961
1.1541045643
1.1852482100
1.1554453840
1.1697476561
1.1568913443
1.1555295669
1.1803747972
1.1810143007
1.1854727359
1.1537736554
1.1571708400
1.1592447042
1.1548254664
1.1624685416
1.1655278896
1.1719111375
1.1539797324
1.1750772024
1.1835234514
1.1541095904
1.1819246713
1.1750118880
1.1740281558
1.1810460934
1.1553483538
1.1806816306
1.1647190264
1.1618833376
1.1784221974
1.1808706402
1.1562877884
1.1779593366
1.1564864532
1.1660485512
1.1706743204
1.1693780763
1.1571779807
1.1815187739
1.1626395049
1.1729247964
1.1602233987
1.1819101510
1.1761190775
1.1558288317
1.1568526148
1.1570639269
1.1580706117
1.1669981398
1.1796577743
1.1575391080
1.1768610732
1.1589467906
1.1811612646
1.1794941160
1.1638621554
1.1683515321
1.1572736830
1.1717538455
1.1644845176
1.1783526963
1.1671843278
1.1553603302
1.1842961444
1.1815585082
1.1560638130
1.1791253612
1.1664801035
1.1628060102
1.1608232811
1.1547926900
1.1825338747
1.1856983724
1.1739323829
1.1833423058
1.1541303276
1.1819111012
1.1580906042
1.1693104094
1.1865643026
1.1776114046
1.1847114394
1.1724175650
1.1744841969
1.1855274016
1.1801365245
1.1831797690
1.1631476255
1.1676068287
1.1763264831
1.1550672810
1.1820379712
1.1662815518
1.1556829521
1.1689365380
1.1706940906
1.1762606251
1.1828189383
1.1783253249
1.1830647303
1.1539805424
1.1641970096
1.1572016239
1.1608228049
1.1880672275
1.1858015070
1.1729612072
1.1875956448
1.1543168249
1.1592860672
1.1556387300
1.1819404813
1.1565494451
1.1756290668
1.1714570774
1.1662348198
1.1587897363
1.1551037970
1.1821007772
1.1562465008
1.1792800863
1.1573039297
1.1619919621
1.1710479459
1.1894343703
1.1575098718
1.1543892398
1.1556582140
1.1560813212
1.1594096746
1.1553717488
1.1822324565
1.1873946720
1.1879607916
1.1806075234
1.1565058404
1.1734156929
1.1578010603
1.1683295836
1.1639928620
1.1907273765
1.1545972706
1.1558291221
1.1571441730
1.1559180360
1.1900586910
1.1776052146
1.1569259678
1.1802946299
1.1845938825
1.1575014039
1.1570640801
1.1580702949
1.1566834440
1.1686207905
1.1542260810
1.1610260530
1.1713702579
1.1565056915
1.1581880469
1.1769066495
1.1562471146
1.1634264101
1.1543898786
1.1790397107
1.1652181536
1.1544839071
1.1562402323
1.1581883913
1.1702234856
1.1680097976
1.1849719040
1.1557176237
1.1837237624
1.1577528508
1.1735049560
1.1614547319
1.1579132359
1.1807280811
1.1556394136
1.1757005030
1.1552069243
1.1551043444
1.1586946689
1.1545978410
1.1559187167
1.1542267267
1.1614544084
1.1594098922
1.1582427063
1.1587151716
1.1543344599
1.1581968436
1.1559638759
1.1564763665
1.1573043791
1.1581002654
1.1588690587
1.1878071458
1.1584411259
1.1554684715
1.1607198013
1.1546934447
1.1623411043
1.1590243318
1.1587220225
1.1845277180
1.1866096820
1.1571334608
1.1580854356
1.1858024761
1.1553723725
1.1595088476
1.1801414490
1.1566839695
1.1714563628
1.1743678441
1.1830676337
1.1566043010
1.1710967369
1.1823081052
1.1739948870
1.1664800854
1.1548631234
1.1621873163
1.1657972690
1.1769064519
1.1573844401
1.1563836164
1.1762625793
1.1802945555
1.1588771330
1.1685064873
1.1557129566
1.1831837745
1.1783564429
1.1689360150
1.1627888116
1.1833463003
1.1588142567
1.1575214089
1.1596500677
1.1619461660
1.1641973624
1.1581530837
1.1546606465
1.1902781566
1.1576619802
1.1599098787
1.1568949054
1.1889490900
1.1561926303
1.1739325830
1.1601148707
1.1586434777
1.1876379187
1.1815634998
1.1628716857
1.1589227006
1.1554221032
1.1858103215
1.1631772937
1.1657970882
1.1559736159
1.1745703699
1.1552073986
1.1566046690
1.1579133637
1.1557181684
1.1875065472
1.1643616039
1.1551278999
1.1544845455
1.1565920892
1.1666690884
1.1891698155
1.1546940032
1.1621035431
1.1586433928
1.1651559026
1.1608247188
1.1590243086
1.1562406919
1.1571337275
1.1554689864
1.1846513980
1.1907763996
1.1807231948
1.1714670711
1.1543350900
1.1590843244
1.1586454062
1.1577526299
1.1901297491
1.1835816796
1.1607196467
1.1594357332
1.1890146053
1.1702442678
1.1566799399
1.1551293774
1.1561023731
1.1730580830
1.1571916666
1.1586354122
1.1559644028
1.1818593156
1.1565358869
1.1548689198
1.1557867075
1.1776962045
1.1871114376
1.1918954167
1.1788258658
1.1681116597
1.1568663989
1.1554470807
1.1563553172
1.1917896470
1.1925975170
1.1586944560
1.1598124501
1.1585031204
1.1635866984
1.1848883581
1.1649327349
1.1631300023
1.1945053634
1.1926016859
1.1579886124
1.1586529921
1.1867759199
1.1596432199
1.1605760531
1.1675710073
1.1899208554
1.1936110070
1.1917960022
1.1602830941
1.1608496549
1.1685185544
1.1654908970
1.1641388784
1.1891615839
1.1913859426
1.1835389544
1.1865249011
1.1732966218
1.1931637166
1.1946637231
1.1665686686
1.1907760261
1.1881722598
1.1628708609
1.1954232826
1.1584409838
1.1926538705
1.1593684369
1.1595811113
1.1953803793
1.1631766838
1.1941885514
1.1936495716
1.1580852796
1.1924995667
1.1585323513
1.1581706938
1.1910721727
1.1919962926
1.1561781736
1.1569778831
1.1571350109
1.1571328721
1.1569742878
1.1570885657
1.1575108169
1.1563402259
1.1564002836
1.1579183692
1.1578120470
1.1580363172
1.1579166166
1.1570026797
1.1561349482
1.1572149954
1.1556214707
1.1564003856
1.1570890327
1.1557627535
1.1553219397
1.1566908983
1.1579412736
1.1563530224
1.1556040325
1.1552532225
1.1575272203
1.1560590327
1.1548544849
1.1566409678
1.1552939145
1.1557021305
1.1557911974
1.1584463885
1.1553110971
1.1565194102
1.1556224067
1.1558985956
1.1557623962
1.1580086474
1.1556613961
1.1573154153
1.1558794878
1.1589175393
1.1592517540
1.1570782356
1.1550501631
1.1565707976
1.1598071560
1.1575292894
1.1552537844
1.1581846802
1.1559192173
1.1562482826
1.1584478382
1.1571029739
1.1620670165
1.1558608599
1.1596351569
1.1557006171
1.1585691665
1.1565149538
1.1563431331
1.1610267199
1.1619109645
1.1553114441
1.1591812994
1.1591343242
1.1574081643
1.1600946300
1.1588315263
1.1580197534
1.1596907636
1.1585872533
1.1563135008
1.1602673412
1.1551193793
1.1592402171
1.1609347316
1.1611331535
1.1558777678
1.1583641256
1.1620687269
1.1721966638
1.1701423492
1.1563378385
1.1596368335
1.1602041932
1.1610206982
1.1590470199
1.1584931725
1.1571359436
1.1616326974
1.1610484115
1.1713568168
1.1699006064
1.1613039232
1.1597762812
1.1594256102
1.1609343513
1.1631288543
1.1635370208
1.1581229902
1.1655664022
1.1636548090
1.1606354135
1.1570927022
1.1644362056
1.1580301236
1.1581517957
1.1602686646
1.1662399534
1.1611353912
1.1606256862
1.1637612556
1.1645757318
1.1657941359
1.1650245564
1.1585759943
1.1574371685
1.1653911951
1.1604310696
1.1551203976
1.1644087499
1.1602050162
1.1616339378
1.1614459490
1.1613001351
1.1686744515
1.1622501498
1.1707467505
1.1724195985
1.1592057033
1.1701507358
1.1594233321
1.1627828961
1.1684170787
1.1623080011
1.1722072318
1.1709849052
1.1662561359
1.1653161815
1.1574276610
1.1672230759
1.1657984047
1.1646118859
1.1632820128
1.1636570650
1.1594290797
1.1574032918
1.1631308913
1.1604334562
1.1619150260
1.1603632241
1.1654256410
1.1644375137
1.1662403656
1.1565589065
1.1630694258
1.1651525254
1.1580225802
1.1644408440
1.1635393306
1.1639105391
1.1606928654
1.1636161092
1.1581408893
1.1672705663
1.1686812272
1.1626756008
1.1605835472
1.1623077758
1.1583502354
1.1622514734
1.1681006680
1.1693752825
1.1683909106
1.1672274422
1.1617474786
1.1758669240
1.1695345001
1.1619266904
1.1594441428
1.1671858959
1.1620802524
1.1626012782
1.1707594291
1.1692685423
1.1682863468
1.1614385530
1.1768614719
1.1630674769
1.1663974756
1.1746446182
1.1672236224
1.1651556397
1.1687989594
1.1619158248
1.1602969348
1.1730151515
1.1632843539
1.1663830470
1.1573966478
1.1701202983
1.1594235948
1.1732517848
1.1635527634
1.1654272564
1.1683921771
1.1768590367
1.1641702934
1.1671855872
1.1616946856
1.1657261312
1.1669873269
1.1619287354
1.1548245582
1.1626021543
1.1672313983
1.1590997514
1.1603455844
1.1690916761
1.1768108777
1.1681426737
1.1650454363
1.1627267685
1.1693865137
1.1546930199
1.1669658164
1.1583432680
1.1701201321
1.1639547945
1.1717590426
1.1545152971
1.1737716793
1.1683808617
1.1707582204
1.1672053795
1.1632067361
1.1744697234
1.1739776471
1.1757438155
1.1700889196
1.1727512259
1.1635526338
1.1693864620
1.1664710072
1.1730328541
1.1743269981
1.1647612080
1.1749992193
1.1714773656
1.1641705542
1.1548260959
1.1669919293
1.1715546243
1.1550140290
1.1720093720
1.1679208452
1.1546741790
1.1654105138
1.1622827716
1.1702429894
1.1548105511
1.1691222123
1.1545169554
1.1739760451
1.1706049568
1.1735950817
1.1546320995
1.1635540672
1.1707602797
1.1662162925
1.1545596593
1.1717752388
1.1728343519
1.1544651461
1.1738534895
1.1683841034
1.1710193842
1.1727538483
1.1634802159
1.1547490697
1.1607559123
1.1699172370
1.1747466099
1.1749986328
1.1715607418
1.1541558434
1.1735528886
1.1748412976
1.1700295277
1.1676707683
1.1714957432
1.1742045007
1.1550212876
1.1709646379
1.1728943296
1.1552679180
1.1542839238
1.1750090643
1.1690868238
1.1546342714
1.1544668603
1.1548947508
1.1543214754
1.1691290036
1.1764756335
1.1547509264
1.1542236699
1.1774215059
1.1683709774
1.1702574175
1.1545799833
1.1727173723
1.1553368426
1.1545342801
1.1617960439
1.1719916077
1.1552883846
1.1544983443
1.1718494716
1.1764329004
1.1543512646
1.1768776046
1.1700279492
1.1544313787
1.1734082559
1.1755467041
1.1676538173
1.1748419477
1.1745462830
1.1742836410
1.1762823596
1.1555506472
1.1543312392
1.1699824477
1.1552696426
1.1699320416
1.1541580095
1.1747416406
1.1607529167
1.1709627459
1.1757823918
1.1717909179
1.1735489464
1.1753355870
1.1542205022
1.1773267424
1.1537517964
1.1662937209
1.1545361206
1.1542254464
1.1759478218
1.1761831815
1.1767134587
1.1556596315
1.1767878512
1.1546995702
1.1539670729
1.1774160258
1.1552903975
1.1683780221
1.1538033451
1.1541650123
1.1753854529
1.1718467494
1.1558799278
1.1709454016
1.1551223397
1.1764700896
1.1539442538
1.1542196397
1.1753045821
1.1756732988
1.1543331681
1.1655927288
1.1755414675
1.1549931808
1.1555528046
1.1676602678
1.1538073922
1.1745416197
1.1768361804
1.1543815383
1.1717880931
1.1570420445
1.1642282416
1.1764506629
1.1562842707
1.1539459086
1.1759447771
1.1776012362
1.1538049270
1.1767080404
1.1709430978
1.1767373994
1.1538693772
1.1761776405
1.1662951638
1.1540321232
1.1765786104
1.1726951923
1.1540389751
1.1759564913
1.1579466601
1.1780398724
1.1538433489
1.1636333290
1.1771102339
1.1539758747
1.1538760475
1.1565334013
1.1773580702
1.1655937986
1.1543419293
1.1537531729
1.1549952376
1.1590021502
1.1772985020
1.1765264010
1.1540548882
1.1538707646
1.1540338028
1.1537816114
1.1780343064
1.1767320448
1.1537149687
1.1776238554
1.1573156576
1.1726918280
1.1765896781
1.1642266903
1.1535596153
1.1536344023
1.1781447360
1.1538093257
1.1602685706
1.1582454482
1.1781271857
1.1771049563
1.1537863128
1.1772928412
1.1775747952
1.1778379991
1.1624048901
1.1539493870
1.1768734447
1.1618355017
1.1536682713
1.1549594314
1.1540398886
1.1543040892
1.1593755019
1.1536356509
1.1602204351
1.1536540728
1.1558858238
1.1539225508
1.1540567391
1.1581683581
1.1536782507
1.1535057416
1.1776195231
1.1539152526
1.1534710832
1.1546020157
1.1540684177
1.1593169183
1.1553775756
1.1538569050
1.1572464486
1.1535609256
1.1534665445
1.1537164878
1.1783311424
1.1607449383
1.1607638780
1.1775693028
1.1752952786
1.1565000246
1.1778321099
1.1719880400
1.1637194165
1.1791932836
1.1777444117
1.1785055622
1.1678821680
1.1618382596
1.1766439846
1.1781044732
1.1737351580
1.1657583996
1.1789581002
1.1785572173
1.1790500036
1.1700018553
1.1578507252
1.1550432308
1.1539891298
1.1535868953
1.1559043316
1.1581027857
1.1539242082
1.1602199487
1.1540417883
1.1536239979
1.1601717563
1.1544097152
1.1537715009
1.1536555199
1.1556693479
1.1541563970
1.1547703776
1.1535832083
1.1569807444
1.1547052248
1.1539519674
1.1535070273
1.1554353267
1.1571922690
1.1537290883
1.1589096939
1.1592636313
1.1541599723
1.1535319978
1.1551758936
1.1540700501
1.1544341403
1.1534723649
1.1740591139
1.1564765656
1.1607298229
1.1637831307
1.1681110575
1.1724392965
1.1664395990
1.1785563649
1.1788988061
1.1801444752
1.1624623067
1.1786458939
1.1794694400
1.1760854508
1.1786946701
1.1562616817
1.1783252409
1.1767845030
1.1705641558
1.1724147341
1.1618417939
1.1659012195
1.1703183161
1.1743774635
1.1643708458
1.1777878201
1.1785023813
1.1798773592
1.1607456201
1.1789550678
1.1800237621
1.1775350233
1.1795332554
1.1755273479
1.1685779040
1.1551690707
1.1541172886
1.1536506907
1.1536254761
1.1539251738
1.1548448072
1.1577663090
1.1601512797
1.1545678054
1.1601724875
1.1542245826
1.1559557146
1.1580684128
1.1556885065
1.1539904718
1.1548523691
1.1541036061
1.1535332099
1.1536623826
1.1545129855
1.1569213734
1.1592435004
1.1543170774
1.1588297686
1.1541611697
1.1555289133
1.1571701684
1.1552297709
1.1538001677
1.1638629210
1.1709481838
1.1683539589
1.1795241754
1.1624954056
1.1796460947
1.1747807155
1.1564859476
1.1777039630
1.1795371389
1.1804694113
1.1811613619
1.1607537276
1.1562421609
1.1729170806
1.1666088352
1.1768446093
1.1798512165
1.1660512456
1.1688083911
1.1706729228
1.1798762846
1.1607312519
1.1805325723
1.1729566010
1.1763714004
1.1787468658
1.1810432066
1.1808747203
1.1618821422
1.1749982771
1.1644759968
1.1784067105
1.1794701541
1.1842928963
1.1693107188
1.1601906863
1.1791241556
1.1549540917
1.1541183020
1.1844973800
1.1846825551
1.1560631571
1.1679407062
1.1580896896
1.1557321917
1.1782027810
1.1825311907
1.1853483655
1.1537767034
1.1577076644
1.1601530578
1.1547920580
1.1553595883
1.1543579737
1.1644847944
1.1633905802
1.1744845732
1.1541295224
1.1731781959
1.1822137156
1.1543117895
1.1835982078
1.1675610513
1.1592850937
1.1774904700
1.1546390847
1.1539259673
1.1842403726
1.1854395252
1.1556822399
1.1705289214
1.1572008757
1.1553119477
1.1799177069
1.1812966973
1.1849689344
1.1536634712
1.1568834417
1.1587766805
1.1545390143
1.1550665796
1.1543179200
1.1630667400
1.1648399808
1.1726623011
1.1538426540
1.1757724890
1.1836622436
1.1543161090
1.1570273602
1.1822295334
1.1608464647
1.1754600679
1.1592570723
1.1814929772
1.1734132866
1.1808622049
1.1556578996
1.1559704737
1.1566317433
1.1805983723
1.1578010806
1.1579050139
1.1639924351
1.1805395165
1.1625433595
1.1577056090
1.1786115223
1.1595929320
1.1804814841
1.1565487931
1.1775956921
1.1562425251
1.1667905553
1.1713440303
1.1577011622
1.1686226825
1.1575013950
1.1819406266
1.1619906975
1.1734943993
1.1599102205
1.1820961396
1.1756225512
1.1804741254
1.1552979220
1.1555609273
1.1572303195
1.1815479790
1.1574567686
1.1580608650
1.1662357425
1.1797177536
1.1607553856
1.1576621334
1.1771814501
1.1587900430
1.1808717174
1.1792697709
1.1645815038
1.1690796464
1.1575099355
1.1710488114
1.1651853203
1.1840686870
1.1787548920
1.1825361669
1.1652186401
1.1679404313
1.1702238611
1.1742963448
1.1551206364
1.1841077766
1.1796730296
1.1816631673
1.1841045048
1.1640587088
1.1558233383
1.1795607753
1.1672482890
1.1633901547
1.1700910299
1.1612886702
1.1687936236
1.1545548650
1.1826587808
1.1853508633
1.1745845307
1.1845270405
1.1795582296
1.1807281071
1.1830235316
1.1539544553
1.1628112661
1.1822150344
1.1576984280
1.1624681732
1.1628065656
1.1878056425
1.1866081953
1.1700903804
1.1757007617
1.1869278614
1.1782031739
1.1846843117
1.1868869246
1.1543125524
1.1601925616
1.1731778534
1.1751631997
1.1856958737
1.1667979438
1.1857003832
1.1803920690
1.1819105502
1.1829920992
1.1637409230
1.1655274312
1.1683659823
1.1770582648
1.1548261879
1.1845003757
1.1815365205
1.1825807855
1.1655594193
1.1554459849
1.1810163337
1.1697101029
1.1616060276
1.1616065145
1.1715021034
1.1545396428
1.1836358179
1.1852512252
1.1767984786
1.1831418923
1.1789356831
1.1826155744
1.1538435863
1.1649146032
1.1724179334
1.1803759868
1.1568920376
1.1612883101
1.1875047082
1.1857823824
1.1719109554
1.1737316425
1.1867500869
1.1757723141
1.1836644245
1.1877863478
1.1541104936
1.1587768210
1.1705283766
1.1769214937
1.1553668072
1.1815159119
1.1858101609
1.1889482399
1.1815548445
1.1562882697
1.1560815793
1.1761298101
1.1574568170
1.1710970121
1.1721906417
1.1669965115
1.1589463852
1.1902771981
1.1545806189
1.1559706916
1.1548298554
1.1819137350
1.1578020002
1.1559859011
1.1890140413
1.1795066301
1.1568697776
1.1782132975
1.1864965916
1.1570274333
1.1568527714
1.1584594630
1.1584591197
1.1569696345
1.1626402515
1.1717553054
1.1890522392
1.1572736490
1.1584019214
1.1541862611
1.1553487264
1.1621873134
1.1694176310
1.1564290011
1.1574598172
1.1588540783
1.1563415421
1.1797142915
1.1550941713
1.1819259878
1.1876375656
1.1879745661
1.1806913977
1.1560532941
1.1740343124
1.1572303726
1.1691644133
1.1647185439
1.1584016394
1.1901287137
1.1543613177
1.1555612632
1.1548405292
1.1814993911
1.1575213785
1.1556555471
1.1899030554
1.1779724084
1.1564291474
1.1810200987
1.1849704615
1.1571780611
1.1566319547
1.1580606234
1.1569079464
1.1564028850
1.1608477216
1.1693767493
1.1894030302
1.1577010903
1.1540654946
1.1552983282
1.1563774512
1.1603146221
1.1722952383
1.1556946168
1.1568697401
1.1577611527
1.1776764108
1.1590884667
1.1545812172
1.1559864476
1.1640583743
1.1541870629
1.1796728204
1.1631471985
1.1603153340
1.1584279804
1.1659101468
1.1599213406
1.1547156748
1.1590002798
1.1864157002
1.1565160141
1.1710105654
1.1567633451
1.1577618497
1.1580564267
1.1710102030
1.1726618611
1.1687932374
1.1584108824
1.1826555994
1.1842443769
1.1634266786
1.1630666477
1.1864173247
1.1581051337
1.1560275683
1.1840689169
1.1813003433
1.1616697317
1.1572433613
1.1651853447
1.1549419659
1.1742960050
1.1750771720
1.1619284601
1.1607939779
1.1847098795
1.1605307609
1.1598243721
1.1841683052
1.1868946576
1.1648394417
1.1812062481
1.1881832068
1.1583728963
1.1579177128
1.1812063535
1.1846825337
1.1553674519
1.1588965498
1.1764106089
1.1555299698
1.1548304280
1.1835246485
1.1586668235
1.1543620269
1.1556561534
1.1621920159
1.1540662650
1.1770579669
1.1619280613
1.1735052939
1.1588547237
1.1583890263
1.1676063965
1.1593932095
1.1545178939
1.1586531384
1.1562512051
1.1569160092
1.1569702417
1.1584087681
1.1671847979
1.1729609553
1.1662811634
1.1595813669
1.1854751803
1.1837236292
1.1869294819
1.1590250549
1.1557935691
1.1820379947
1.1603173485
1.1572381629
1.1549649590
1.1715017307
1.1881819186
1.1621922666
1.1617474593
1.1596225554
1.1593687322
1.1857010331
1.1875970189
1.1574895628
1.1585658411
1.1828191694
1.1868877798
1.1550947893
1.1592969075
1.1783251494
1.1552454883
1.1548410507
1.1803993818
1.1564034242