<VTKFile type="UnstructuredGrid" version="0.1">
	<UnstructuredGrid>
		<Piece NumberOfPoints="1862" NumberOfCells="3498">
			<CellData>
				<DataArray type="Int32" Name="type" NumberOfComponents="1" Format="ascii">
0
0
0
0
0
0
0
0
0
0
0
0
0
0
0
0
1
0
0
1
0
0
0
0
0
0
0
0
0
0
0
0
0
1
0
0
0
0
0
0
0
0
0
0
0
0
0
0
0
0
1
0
0
0
0
0
0
0
0
0
0
1
0
0
0
0
0
0
0
0
0
0
0
0
0
0
0
0
0
0
0
0
0
0
0
0
0
0
0
0
0
0
0
0
0
0
0
0
0
0
0
0
0
0
0
0
0
0
0
0
0
0
0
0
0
0
0
0
0
0
0
0
0
1
0
0
0
0
0
0
0
0
0
0
0
0
0
0
0
0
0
0
0
0
0
0
0
0
0
0
0
1
0
1
1
0
0
0
0
0
0
0
0
0
0
0
0
0
1
0
1
0
0
0
0
1
0
0
0
0
0
0
0
0
1
1
0
0
0
0
0
1
0
0
0
0
0
0
0
0
1
0
0
0
0
0
0
0
0
0
0
0
0
0
0
0
0
0
0
0
0
0
0
0
0
0
0
0
0
0
0
0
0
1
0
0
0
0
0
0
0
0
0
0
0
0
0
0
0
0
0
0
0
0
0
0
0
0
0
0
0
0
0
0
0
0
0
0
0
0
0
0
0
0
0
0
0
0
0
0
0
1
0
0
0
0
0
0
0
0
0
0
0
0
0
0
0
0
0
0
0
0
0
0
0
0
0
0
0
0
0
0
0
0
0
0
0
0
0
0
0
0
0
0
0
0
0
0
0
0
0
0
1
0
0
0
0
0
0
0
0
0
0
0
0
0
0
0
0
0
0
0
0
0
0
0
0
0
0
0
0
0
0
0
0
0
0
0
0
0
0
0
0
0
0
0
0
0
0
0
0
0
0
0
0
0
0
0
0
0
1
0
0
0
0
0
0
0
0
0
0
0
0
0
0
0
0
0
0
0
0
0
0
0
0
0
0
0
0
0
0
0
0
0
0
0
0
0
0
0
0
0
0
0
0
0
0
0
0
0
0
0
0
0
0
0
0
0
0
0
0
0
0
0
0
0
0
0
0
0
0
0
0
0
0
0
0
0
0
0
0
0
0
0
0
0
0
0
0
0
0
0
0
0
0
0
0
0
0
0
0
0
0
0
0
0
0
0
0
0
0
0
0
0
0
0
0
0
0
0
0
0
0
0
0
0
0
0
0
0
0
0
0
1
0
0
0
0
0
0
0
0
0
0
0
0
0
0
0
0
0
0
0
1
0
0
0
0
0
0
0
0
0
0
0
0
0
0
0
0
0
0
0
0
0
0
0
0
0
0
0
0
0
0
0
0
0
0
0
0
0
0
0
0
0
0
0
0
0
0
0
0
0
0
0
0
0
1
0
0
0
0
0
0
0
0
0
0
0
0
0
0
0
0
0
0
0
0
0
0
0
1
0
0
0
0
0
0
0
0
0
0
0
0
0
0
0
0
0
0
0
1
0
0
0
1
0
0
0
0
0
0
0
0
0
0
0
0
0
0
0
0
0
0
0
0
0
0
0
0
0
1
0
0
0
0
0
0
0
1
0
0
0
0
0
0
0
0
0
0
0
0
0
0
0
0
0
0
0
0
0
0
0
0
0
0
1
0
0
0
0
0
0
0
1
0
0
0
0
0
0
1
0
0
0
0
0
0
0
0
0
0
0
0
0
0
0
0
0
0
0
0
0
0
0
0
0
0
0
0
0
0
0
0
0
0
0
0
0
0
1
0
0
0
0
0
1
0
0
0
0
0
0
0
1
0
0
0
0
0
0
0
0
0
0
0
0
0
1
0
0
0
0
0
0
0
0
0
0
0
0
0
0
0
0
0
0
0
0
0
0
0
0
0
0
0
0
0
0
0
0
0
0
0
0
0
0
0
0
0
0
0
0
0
0
0
0
0
0
0
0
0
1
0
0
0
0
0
0
0
0
0
0
0
0
0
0
0
0
0
0
0
1
0
0
0
0
0
0
0
0
0
1
0
0
0
0
0
0
0
0
0
0
0
0
0
0
0
0
0
0
0
0
0
0
0
0
0
0
0
0
0
1
0
1
0
0
0
0
0
0
0
0
0
0
0
0
0
0
0
0
0
0
0
0
0
0
0
0
0
0
0
1
0
0
0
1
0
0
0
0
0
0
0
0
0
0
0
0
0
0
0
0
0
0
0
0
0
0
0
0
0
0
0
0
1
0
0
0
0
0
0
0
0
0
0
0
0
0
0
0
0
0
0
0
0
0
0
0
0
0
1
0
0
0
0
0
0
0
0
0
0
0
0
0
0
0
0
0
0
0
0
0
0
0
1
0
0
0
0
0
0
1
0
0
0
0
0
0
0
0
0
0
0
1
0
0
0
0
0
0
0
0
0
0
0
0
0
0
0
0
0
0
0
0
1
0
0
0
0
0
0
0
0
0
0
0
1
0
0
0
0
0
0
0
0
0
0
0
0
0
0
0
0
0
0
0
0
0
1
0
0
0
0
0
0
0
0
0
1
1
0
1
0
1
0
0
0
0
0
0
0
0
0
0
0
1
0
0
0
0
0
1
1
0
0
0
0
0
0
1
0
0
0
0
0
1
1
1
0
0
0
0
0
0
0
0
0
0
0
0
1
1
0
0
1
0
0
0
0
0
1
0
0
0
1
0
1
0
0
0
0
0
0
0
1
0
0
0
0
0
0
0
1
0
0
1
0
0
0
0
0
0
0
0
0
0
0
0
0
0
0
1
0
0
0
0
0
0
0
0
0
0
0
0
0
0
0
0
0
0
0
0
0
0
0
0
0
0
0
0
0
0
0
0
0
0
0
0
1
0
0
0
0
0
0
1
0
0
0
1
0
0
0
0
0
0
0
0
0
0
0
1
0
0
0
0
0
0
0
0
0
0
0
0
0
0
0
0
0
0
0
0
0
0
0
0
0
0
0
0
0
0
0
0
0
0
0
0
0
0
0
0
1
1
0
0
0
0
0
0
0
0
0
0
0
0
0
1
0
0
0
0
0
0
0
0
0
0
0
0
0
0
0
0
0
0
0
0
0
0
0
0
0
0
0
0
0
0
0
0
0
0
0
0
0
0
0
0
0
0
0
0
0
0
0
0
0
0
0
0
0
0
0
0
0
0
0
0
0
0
0
0
0
0
0
0
0
0
0
0
1
1
0
0
0
0
0
0
0
0
1
0
0
0
0
0
0
0
0
0
0
0
0
0
0
0
0
0
0
0
0
0
0
0
1
0
0
0
0
0
0
0
0
0
0
0
0
0
0
0
0
1
0
0
0
0
0
0
0
0
0
0
0
0
0
0
0
0
0
0
0
0
0
0
0
0
0
0
0
0
0
0
0
0
0
0
0
0
0
0
0
0
0
0
0
0
0
0
0
0
0
0
0
0
0
0
0
0
0
0
0
0
0
0
0
0
0
0
0
0
0
0
0
0
0
0
0
0
0
0
0
0
0
0
0
0
0
0
0
0
0
0
1
1
0
0
0
0
0
1
0
0
0
0
0
0
0
0
0
0
0
0
1
0
0
0
0
0
0
0
0
0
0
0
0
0
0
0
0
0
0
0
0
0
0
0
0
0
0
0
0
0
0
0
0
0
0
0
0
0
0
0
0
0
0
0
0
0
0
0
0
0
0
0
0
0
1
0
1
0
0
0
0
0
0
0
0
0
0
0
0
0
0
0
0
0
0
1
0
0
0
0
0
0
0
0
0
0
0
0
0
0
0
0
0
0
0
0
0
0
0
0
0
0
0
0
0
0
0
0
0
0
0
0
0
0
0
0
0
0
0
0
0
0
0
0
0
0
0
0
0
0
0
0
0
0
0
0
0
0
0
0
0
0
0
0
0
0
1
0
0
0
0
0
0
0
0
0
0
1
0
0
0
0
0
0
0
0
0
0
0
0
0
0
0
0
0
0
0
0
0
0
0
0
0
0
0
0
0
0
0
0
0
0
0
0
0
1
0
0
0
0
0
0
0
0
0
0
0
0
0
0
0
0
0
0
0
0
0
0
0
0
0
0
0
0
0
0
0
0
0
0
0
0
0
0
0
0
0
0
0
0
0
0
0
0
0
0
0
0
0
0
0
0
0
0
0
0
0
0
0
0
0
0
0
0
0
0
0
0
0
0
0
0
0
0
0
0
0
1
0
0
0
0
0
0
0
0
0
0
0
0
0
0
0
0
0
0
0
0
0
0
0
0
0
0
0
0
0
0
0
0
0
0
0
0
0
0
0
0
0
0
0
0
0
0
0
0
0
0
0
0
0
0
0
0
0
0
0
0
0
0
0
0
0
0
0
0
0
0
0
0
0
0
0
0
0
0
0
0
0
0
0
0
0
0
0
0
0
0
0
0
0
0
0
0
0
0
0
0
0
0
0
0
0
0
0
0
0
0
0
0
0
0
0
0
0
0
0
0
0
0
0
1
0
0
0
0
0
0
0
0
0
0
0
0
0
0
0
0
0
0
0
0
0
0
0
0
0
0
0
0
0
0
0
0
0
0
0
0
0
0
0
0
0
0
0
0
0
0
0
0
0
0
0
0
0
0
0
0
0
0
0
0
0
0
0
0
0
0
0
0
0
0
0
0
0
0
0
0
0
0
0
0
0
1
0
0
0
0
0
0
0
1
0
0
0
0
0
0
0
0
0
0
0
0
0
0
0
0
0
0
0
0
0
0
0
0
0
0
0
0
0
0
0
0
0
0
0
0
0
1
0
0
0
0
0
0
0
0
0
0
0
0
0
0
0
0
0
0
0
0
0
1
0
0
0
0
0
0
0
0
0
0
0
0
1
1
0
0
0
0
0
0
0
0
0
0
0
0
0
0
0
1
1
0
1
0
0
0
0
0
0
0
0
0
1
0
0
0
0
0
0
1
0
0
0
0
0
0
0
0
0
0
1
0
0
0
0
1
0
1
0
0
0
0
0
0
0
1
0
0
0
1
0
0
0
1
0
1
1
0
0
1
1
0
0
0
1
0
0
0
1
0
0
0
0
0
0
0
0
0
1
0
0
0
0
0
0
1
0
0
0
0
0
0
0
0
0
0
0
0
0
0
0
0
0
0
0
0
0
0
0
0
0
0
0
1
0
0
1
0
0
0
0
0
0
0
0
0
0
0
0
0
0
0
0
0
0
1
0
0
1
0
0
0
0
0
0
0
0
0
0
0
1
0
0
1
0
0
0
0
0
0
0
0
0
0
0
1
1
0
0
0
0
0
0
0
0
0
0
0
0
1
0
0
0
0
0
0
0
0
0
0
0
0
0
0
0
0
0
1
0
0
0
0
0
0
0
0
0
0
0
0
0
0
0
0
0
1
0
0
0
0
0
0
0
0
0
0
0
0
0
0
0
0
0
0
0
0
0
0
0
0
0
0
0
0
0
0
0
0
0
0
0
0
0
0
0
0
1
0
0
0
0
0
0
0
0
0
0
0
0
0
0
0
0
0
0
0
0
0
0
0
0
0
0
0
0
0
0
0
0
0
0
0
0
0
0
0
0
0
0
0
0
0
1
0
0
0
0
0
0
0
0
0
0
0
0
0
0
0
0
0
0
0
0
0
0
0
0
0
0
0
0
0
0
0
0
0
0
0
0
0
0
0
0
0
0
0
0
0
0
0
1
0
0
0
0
0
0
0
0
0
0
1
0
0
0
0
0
0
0
0
0
0
0
0
0
0
0
1
0
0
1
0
0
0
0
0
0
0
0
0
0
0
0
0
0
0
0
0
0
0
0
0
0
0
1
0
0
0
0
0
0
0
0
0
0
0
0
0
0
0
0
0
0
0
0
0
0
0
0
0
0
0
0
0
0
0
0
0
0
0
1
0
0
0
0
0
0
0
0
0
0
0
0
0
0
0
0
0
0
0
0
0
0
0
0
0
0
0
0
0
0
0
0
0
0
0
0
0
0
0
0
0
0
0
0
0
0
0
0
0
0
0
0
0
0
0
0
0
0
0
0
0
0
0
0
0
0
0
0
0
0
0
0
0
0
0
0
1
0
0
0
0
0
0
0
0
0
0
0
0
0
0
0
0
0
0
0
0
0
0
0
0
0
0
0
0
0
0
0
0
0
0
0
0
0
0
0
1
0
0
0
0
0
0
0
0
0
0
0
0
1
1
0
0
0
0
0
0
0
0
0
0
0
0
0
0
0
0
0
0
0
0
0
0
0
0
0
0
0
0
0
0
0
0
0
0
0
0
0
0
0
0
0
0
0
0
0
0
0
0
0
0
0
0
0
0
0
0
0
0
0
0
0
0
0
0
0
0
0
0
0
0
0
0
0
0
0
0
0
0
0
0
0
0
0
0
0
0
0
0
0
0
0
0
0
0
0
0
0
0
0
0
0
1
0
1
0
0
0
0
0
0
0
1
1
1
1
0
0
0
0
0
0
0
0
0
0
0
0
0
0
0
0
0
0
0
0
0
0
0
0
0
0
0
0
1
1
0
0
0
0
0
0
0
0
0
0
0
0
0
0
0
0
0
0
1
0
0
0
0
0
0
0
1
1
0
1
1
0
0
1
0
0
0
0
0
0
0
1
0
1
0
0
0
0
0
0
0
0
0
0
0
0
0
0
0
0
0
0
0
0
0
0
0
0
0
0
0
1
1
0
0
0
1
1
0
0
0
0
1
0
0
1
0
1
0
0
0
0
0
1
0
0
0
1
0
0
0
0
0
0
0
0
0
0
0
0
0
0
0
0
0
0
0
0
0
0
0
0
0
0
0
1
0
0
0
0
0
0
1
0
0
0
0
0
0
0
0
0
0
0
0
0
0
0
0
0
0
0
0
0
0
0
0
0
0
0
0
0
1
0
1
0
0
0
0
0
0
0
1
0
0
0
0
0
0
0
0
0
0
0
1
0
0
0
0
0
0
0
0
0
1
0
0
0
0
0
0
0
1
0
0
0
0
0
0
0
1
0
0
0
0
0
0
0
0
0
0
0
0
0
0
0
0
0
0
0
1
0
1
0
0
0
0
0
1
0
0
0
0
0
0
0
0
0
0
0
0
0
0
0
0
0
0
0
0
0
0
0
0
0
1
0
1
0
0
0
0
0
0
0
0
0
1
0
0
0
0
0
1
0
0
0
0
0
0
0
0
0
0
0
0
0
0
0
1
0
0
0
0
0
0
0
0
1
0
0
0
0
0
0
0
0
0
0
0
0
0
0
0
0
0
0
0
0
0
0
0
0
0
0
0
0
0
0
1
0
0
0
0
0
0
0
0
0
0
0
0
0
0
0
0
1
0
0
0
0
0
0
0
0
1
0
0
0
0
0
0
0
0
0
1
0
0
0
0
0
1
0
0
0
0
0
0
0
0
0
0
0
0
0
0
0
0
0
0
0
1
0
0
0
0
0
0
1
0
0
0
0
0
0
0
0
1
0
0
0
0
0
0
0
0
0
0
0
0
0
0
1
0
0
1
0
0
0
1
0
0
0
0
0
0
0
0
0
0
0
0
0
0
0
0
1
0
0
0
0
0
0
0
0
0
0
1
0
1
0
0
0
0
0
0
1
0
0
0
0
0
0
0
0
0
0
0
0
0
0
0
0
0
0
0
0
0
0
0
0
0
0
0
1
1
0
0
0
0
0
0
1
0
0
0
0
0
0
0
0
0
0
0
0
0
1
0
0
0
0
0
0
0
1
0
0
0
0
0
0
0
0
0
0
0
0
0
0
0
0
0
0
0
0
0
0
0
0
0
0
0
1
0
0
0
0
0
0
0
0
0
0
1
0
0
1
0
0
0
0
0
0
0
0
0
0
0
0
0
0
0
0
0
0
0
0
0
0
0
0
0
0
0
0
0
1
0
0
0
0
0
0
0
1
0
0
0
0
0
0
0
1
0
0
0
0
1
0
0
0
0
0
0
0
0
0
0
0
1
0
1
0
0
0
1
0
				</DataArray>
				<DataArray type="Float64" Name="h" NumberOfComponents="1" Format="ascii">
1.2013980088
1.2013831088
1.2032003381
1.1992253647
1.2042996695
1.2034713815
1.2014717080
1.1985496508
1.2015454600
1.1957648284
1.1983907234
1.2019380671
1.1999226092
1.1965773956
1.1995055758
1.1992486095
1.1999912204
1.1968463100
1.2017753227
1.1969194472
1.2048370972
1.2018659837
1.2046167966
1.2062343285
1.1988187761
1.1992180403
1.2050016767
1.2136402893
1.2061389529
1.1954941335
1.1958096997
1.2043735787
1.2022599973
1.2035143426
1.2113821751
1.2078293935
1.2080878707
1.2064184978
1.2135986465
1.2061490045
1.2058981371
1.2132403552
1.2047151801
1.2080121328
1.2076487861
1.2116741168
1.2061278344
1.2135284933
1.2305442777
1.2294388900
1.2068589151
1.2096669404
1.2077395176
1.2200787504
1.2114029667
1.2062402541
1.2113731951
1.2162852579
1.2184313452
1.2182632914
1.2202824757
1.2189554467
1.2290101653
1.2094648047
1.2095659829
1.2170033443
1.2282150606
1.2278739606
1.2191441951
1.2177156702
1.2180058207
1.2116445936
1.2077729800
1.2216354957
1.2198339985
1.2160517983
1.2167651227
1.2209868471
1.2145260375
1.2155436113
1.2227550488
1.2187054353
1.2348306283
1.2265913904
1.2134714074
1.2182407227
1.2241742381
1.2252842914
1.2227987728
1.2342246565
1.2258239610
1.2162699744
1.2219354157
1.2333598277
1.2203481740
1.2184098292
1.2240554271
1.2135675344
1.2153604925
1.2244603730
1.2339872327
1.2230291474
1.2221471611
1.2147181413
1.1941234847
1.2272985202
1.2213814000
1.2317717031
1.2213899580
1.2203393724
1.2321917425
1.2332147255
1.2244745507
1.2271995062
1.2235170949
1.2300245494
1.2220380030
1.1943225253
1.2297148244
1.2248036457
1.1933546176
1.2239522279
1.2188569585
1.1894083553
1.2259061760
1.2315342914
1.2233529613
1.1899575555
1.2285323113
1.2309423079
1.2280794904
1.2217242689
1.2246424695
1.2293546801
1.1928968885
1.2284547201
1.1982649907
1.2302281039
1.2254126941
1.2015443239
1.1912948064
1.1904716237
1.2286719038
1.2039371609
1.2193364852
1.2266509427
1.1997360064
1.2333522497
1.1909098207
1.2335482701
1.1971621349
1.2300199767
1.2306966407
1.2323402306
1.2241264309
1.2314923529
1.2319014002
1.1929352778
1.2328649258
1.1889090691
1.2028047429
1.2327205826
1.1988695576
1.1903703580
1.1918179541
1.2327905465
1.2063597567
1.2008131546
1.1874399663
1.2316107316
1.2314536636
1.1873484189
1.2321710154
1.1936299289
1.2073905747
1.2326251448
1.2050394265
1.2352023359
1.2327379216
1.1912554483
1.2319275836
1.2097627193
1.1896420123
1.2198261541
1.1872378109
1.1857832994
1.2088425955
1.2329078479
1.1871976111
1.1861431519
1.2120991097
1.2327940438
1.1881072754
1.2113669098
1.2326018801
1.2347944467
1.1937339077
1.2144749854
1.2137914976
1.2342361531
1.1859049699
1.2218332963
1.1859414268
1.2334400233
1.2170275026
1.1930042414
1.2015524197
1.1980258920
1.2162827294
1.2053019677
1.2115469310
1.1873355473
1.1934968926
1.1934461937
1.1998705085
1.2137071219
1.2033308085
1.1944552143
1.2094402906
1.1904603877
1.2189776019
1.2346322630
1.2073451161
1.2320166071
1.2228614185
1.2358955453
1.2360715931
1.2282603667
1.2198036860
1.2355018354
1.2345300617
1.2334737918
1.2257547267
1.2350997868
1.2362783325
1.2301934842
1.2120219049
1.2031134856
1.1907737292
1.2061867976
1.2111963787
1.2000691884
1.1956192684
1.2061207901
1.1991617438
1.2025245053
1.1945779407
1.2099876462
1.2016404891
1.1969531118
1.2046174858
1.2094524676
1.1959531390
1.2142103954
1.2131168880
1.1961615156
1.2042594056
1.2008652100
1.1934407171
1.2333922917
1.2077968984
1.2227154892
1.2285825648
1.2327987056
1.2248096869
1.2367385841
1.2373619339
1.2186145605
1.2355923020
1.2357662404
1.2374265769
1.2080359854
1.2356606049
1.2297496283
1.2317592471
1.2193358858
1.2258421750
1.2308508153
1.2344537868
1.2218142757
1.2363432495
1.2365213651
1.2363923546
1.2377440416
1.2367576847
1.2346778554
1.2274662732
1.2042589688
1.1971547580
1.1981439177
1.2038673331
1.2114697261
1.2018917377
1.2011129611
1.2065094108
1.2103518675
1.2066814955
1.2031172277
1.1992979416
1.1961557792
1.1987906901
1.2025063031
1.2097253630
1.2120887828
1.2134764710
1.2053797637
1.2089184296
1.2052519766
1.1983531404
1.2222555475
1.2301551774
1.2286692117
1.2370783430
1.2178505226
1.2384951327
1.2341525912
1.2076693771
1.2367677259
1.2387411261
1.2081552577
1.2333489353
1.2246849067
1.2365936561
1.2381453352
1.2256632147
1.2276256436
1.2312133872
1.2378451203
1.2323282218
1.2356319959
1.2375733203
1.2390304328
1.2379695805
1.2185731701
1.2351390806
1.2213860501
1.2377102911
1.2047266227
1.2414288828
1.2062782942
1.2091578621
1.2066880766
1.1995924721
1.2104928443
1.2033098228
1.2048668044
1.2027174987
1.2004473286
1.2406276237
1.2234213375
1.2108348659
1.2352302193
1.2037443273
1.2005717598
1.2416143919
1.2055726898
1.2274105456
1.2079421080
1.2056982049
1.2378787908
1.2385832812
1.2418314570
1.1987844064
1.2089837053
1.2124015429
1.2041320003
1.2160830655
1.2215060277
1.2302184554
1.2012035208
1.2332055647
1.2399323675
1.2013698721
1.2399053245
1.2346593148
1.2336658233
1.2393111924
1.2045248372
1.2392698366
1.2216529490
1.2168890053
1.2375577446
1.2385003788
1.2070277169
1.2371496387
1.2077515020
1.2242943467
1.2303079097
1.2285628662
1.2040879812
1.2392815054
1.2177574095
1.2326771074
1.2133947453
1.2400543690
1.2355864459
1.2044696727
1.2028657865
1.2030267931
1.2078623181
1.2253098916
1.2384934458
1.2061593656
1.2362812225
1.2102441340
1.2391329268
1.2383748786
1.2207008041
1.2275183037
1.2049599092
1.2313431825
1.2196560252
1.2369257583
1.2239827506
1.2050206258
1.2412021016
1.2395158543
1.2062036060
1.2370910699
1.2234267449
1.2173618076
1.2131530358
1.2038484160
1.2397594694
1.2418021544
1.2328730887
1.2409164821
1.2017513780
1.2387605473
1.2093082171
1.2270192973
1.2421207343
1.2354479987
1.2408324967
1.2305268857
1.2329560870
1.2403869934
1.2383863953
1.2407978206
1.2192135086
1.2251199612
1.2345197619
1.2044564266
1.2384200514
1.2241342381
1.2055927896
1.2270272596
1.2295103046
1.2351032824
1.2389937031
1.2358426675
1.2406552105
1.2011967553
1.2195375696
1.2079146745
1.2131547104
1.2424734285
1.2410006552
1.2311932263
1.2419833801
1.2024409743
1.2112727796
1.2047755139
1.2397191695
1.2069309101
1.2349519158
1.2301879857
1.2238015499
1.2106819115
1.2044184828
1.2401936571
1.2054093854
1.2380753827
1.2068291254
1.2160398495
1.2302744963
1.2425343166
1.2054076519
1.2034767331
1.2043996345
1.2035606202
1.2104975323
1.2046578942
1.2401676439
1.2412203598
1.2415080558
1.2391235985
1.2030323006
1.2328273821
1.2018234876
1.2280086114
1.2199871740
1.2431415432
1.2038086726
1.2044661152
1.2034433233
1.2050752571
1.2424296930
1.2366903267
1.2017299929
1.2380854000
1.2398288917
1.2042929326
1.2030252541
1.2078628503
1.2059346271
1.2272621528
1.2032512446
1.2135131783
1.2318199390
1.2030356306
1.2082927476
1.2354924068
1.2054103038
1.2210317054
1.2034699705
1.2364610441
1.2219911478
1.2038282080
1.2047498201
1.2082953920
1.2282780626
1.2266104335
1.2417370717
1.2046192569
1.2393480254
1.1981046906
1.2321947715
1.2171395120
1.2071150254
1.2375859913
1.2047752213
1.2337246635
1.2044973220
1.2044155914
1.2131654994
1.2038025820
1.2050755863
1.2032444434
1.2171404727
1.2105003189
1.2114284251
1.2035812747
1.2037515404
1.2079464539
1.2046299058
1.2022844455
1.2068313745
1.2097716924
1.2013079946
1.2423278429
1.2058789421
1.2045969101
1.2175796417
1.2040877355
1.2202729252
1.2092337567
1.1994628850
1.2401217357
1.2416496825
1.2057964791
1.1989432235
1.2410030073
1.2046565526
1.2151932089
1.2383904089
1.2059362216
1.2301906389
1.2343624870
1.2406710245
1.2050828123
1.2308205858
1.2386753597
1.2333439462
1.2234291190
1.2045855676
1.2156708076
1.2250524248
1.2354935769
1.2055295299
1.2039387009
1.2351070822
1.2380862276
1.1932500048
1.2288552503
1.2040269182
1.2408067745
1.2369293023
1.2270295724
1.1967790998
1.2409296416
1.2159967149
1.2033048710
1.2167525437
1.2035590266
1.2195401760
1.2071836955
1.2049077184
1.2427686115
1.2067373961
1.2136176229
1.2045812711
1.2421017631
1.2037470783
1.2328762913
1.2087407180
1.2157010430
1.2412597778
1.2395201931
1.1750591241
1.2145085374
1.2042979930
1.2404403448
1.1890693098
1.2250529455
1.2038568243
1.2349597995
1.2044947206
1.2050836135
1.2071175250
1.2046184962
1.2424019812
1.2232913365
1.2044437299
1.2038220004
1.2041171773
1.1815978541
1.2420554673
1.2040820529
1.2091128817
1.2157013314
1.1929465759
1.2137146734
1.2092364336
1.2047498146
1.2057982567
1.2045955760
1.2404248553
1.2426233744
1.2387872432
1.2321937423
1.2037453553
1.2164687868
1.2161959040
1.2064430364
1.2429483560
1.2394157240
1.2175801530
1.2122412017
1.2419145894
1.1802476767
1.2038946116
1.2049369214
1.2038298180
1.1699674195
1.2051035121
1.2085330510
1.2046294268
1.2392337976
1.2037147481
1.2055631743
1.2040625359
1.2371386569
1.2413403693
1.2430755246
1.2376518841
1.1677719360
1.2043219095
1.2044526191
1.2037125334
1.2432404695
1.2437010883
1.2131660939
1.2160148291
1.2143657997
1.2021283553
1.2406820818
1.2004375719
1.2079401847
1.2445234828
1.2435665359
1.2078742455
1.2091554784
1.2416961787
1.2098388423
1.2118013160
1.1919440762
1.2425502507
1.2440373288
1.2431716358
1.2060614555
1.2015725098
1.1830073321
1.1887901915
1.1984049892
1.2424667726
1.2432472617
1.2400225708
1.2414350264
1.1668192726
1.2438920595
1.2443710320
1.1769767519
1.2426232234
1.2417142065
1.1750571582
1.2449973608
1.2058790862
1.2434074037
1.1980483079
1.2006468029
1.2451629055
1.1890678589
1.2443383361
1.2441277170
1.1989405996
1.2434198006
1.1955966024
1.1927177109
1.2428166927
1.2435687672
1.2031472178
1.2025787771
1.2024927373
1.2024803422
1.2025616128
1.2010839608
1.2019429742
1.1983972188
1.1994499661
1.2045329881
1.2034779577
1.2042925202
1.2045236868
1.2015348269
1.1995153340
1.2014790096
1.1965679119
1.1994431628
1.2010778322
1.1992458920
1.1968506350
1.1992221984
1.2031950104
1.2017941532
1.1954989794
1.1987494818
1.2017864100
1.1985405697
1.1992186461
1.1988212789
1.1957609722
1.2006430026
1.1999123995
1.2049321505
1.2010733549
1.2029584534
1.1965629135
1.1958131158
1.1992374455
1.2035155203
1.2022698391
1.2043957875
1.2035972846
1.2061524217
1.2127542964
1.1999898289
1.1992474246
1.2047415659
1.2136231729
1.2017822067
1.1987452566
1.2059100737
1.1965733321
1.1969198551
1.2049291065
1.2045897598
1.2141117734
1.2018513660
1.2080683018
1.2006316160
1.2048347551
1.2029373523
1.2034254771
1.2152040048
1.2135252325
1.2010702418
1.2076526954
1.2068581562
1.2061577527
1.2136181452
1.2062303393
1.2061220575
1.2113859546
1.2113292998
1.2049818035
1.2096037420
1.1973803569
1.2127226128
1.2132044027
1.2115094184
1.2035853217
1.2077597551
1.2141164683
1.2307419188
1.2276656054
1.2034013665
1.2080677788
1.2099008693
1.2151970613
1.2078242408
1.2095959138
1.2063845424
1.2132305286
1.2113844056
1.2289940796
1.2278524918
1.2150769995
1.2080879716
1.2094706831
1.2132071693
1.2158139731
1.2168917038
1.2079835736
1.2216183128
1.2183491963
1.2116434193
1.2077998792
1.2175772867
1.2107127437
1.2097685650
1.2096039991
1.2204821469
1.2115117321
1.2132424241
1.2167592649
1.2179989434
1.2214007602
1.2198212860
1.2112956314
1.2077884414
1.2191392345
1.2099984695
1.1973775690
1.2177116091
1.2099010627
1.2132351492
1.2170701858
1.2150759315
1.2264628235
1.2151581351
1.2295663687
1.2305629922
1.2096586213
1.2276867442
1.2116531079
1.2187072973
1.2265722243
1.2167884176
1.2307624136
1.2294621713
1.2202868750
1.2189591933
1.2077541813
1.2217844858
1.2214165020
1.2184401836
1.2167460127
1.2183593300
1.2142579457
1.2090482584
1.2158201086
1.2100005124
1.2149469718
1.2114037854
1.2194138398
1.2175811627
1.2204867926
1.2062189872
1.2185785177
1.2195798651
1.2106862829
1.2200879132
1.2168996037
1.2182731739
1.2162899754
1.2162898164
1.2097333688
1.2219289159
1.2264818843
1.2147145151
1.2153797994
1.2167929292
1.2117771033
1.2151640226
1.2230251132
1.2283465815
1.2235881118
1.2252640569
1.2169967182
1.2339763932
1.2282366802
1.2128623126
1.2135987319
1.2216262414
1.2184219003
1.2167021325
1.2295902968
1.2244557724
1.2272824371
1.2170564990
1.2344958545
1.2185805488
1.2213799374
1.2331957699
1.2217897270
1.2195909281
1.2244640913
1.2149528312
1.2160369824
1.2322481403
1.2167545968
1.2209946640
1.2090226664
1.2254986387
1.2142405998
1.2321664285
1.2203428844
1.2194199564
1.2235950098
1.2345009759
1.2202419931
1.2216299616
1.2182262802
1.2239456771
1.2229842793
1.2128650767
1.1960798873
1.2167084647
1.2252785823
1.2134483422
1.2155197498
1.2241780282
1.2348374483
1.2227588152
1.2220302929
1.2145296573
1.2283692823
1.1933558032
1.2252964885
1.2117536973
1.2255032797
1.2217296079
1.2309254860
1.1961326213
1.2315217943
1.2241281714
1.2269636123
1.2228105236
1.2203411538
1.2333805710
1.2307242153
1.2342387036
1.2258304903
1.2300386700
1.2159885646
1.2258890954
1.2233361718
1.2322742349
1.2309381752
1.2221523546
1.2323041922
1.2309296335
1.2202499059
1.1960798617
1.2229984090
1.2287209743
1.1929003530
1.2284488416
1.2246257133
1.1941226855
1.2240600085
1.2193463202
1.2293701319
1.1904753359
1.2260285718
1.1961340269
1.2307291004
1.2272109234
1.2317862939
1.1975054475
1.2159917282
1.2269730195
1.2235313471
1.1909127562
1.2309534616
1.2286690517
1.1885407299
1.2300256548
1.2241399636
1.2266481475
1.2300488383
1.2213761310
1.1916776471
1.2169095933
1.2293360533
1.2308112631
1.2323110575
1.2287356239
1.1958573723
1.2291573614
1.2325604799
1.2251929175
1.2248214434
1.2309579252
1.2300183294
1.1943194253
1.2264673596
1.2297226140
1.1939350213
1.1971602008
1.2306955909
1.2241234998
1.1975100508
1.1885365539
1.2008116968
1.1918198529
1.2260479814
1.2324129065
1.1916739575
1.1896491613
1.2338328961
1.2275665956
1.2293965325
1.1894039065
1.2285340706
1.2028079790
1.1919198014
1.2188502628
1.2280831447
1.1929326245
1.1988651883
1.2273149448
1.2327195964
1.1899538256
1.2328633842
1.2251953194
1.1982716050
1.2293560325
1.2314690611
1.2268942267
1.2325689426
1.2305615015
1.2302287062
1.2321696285
1.1941334601
1.1952380333
1.2254153295
1.1939311070
1.2293600285
1.1958569623
1.2308124279
1.2169007609
1.2264695737
1.2316092771
1.2275420484
1.2291587220
1.2314520755
1.1936316644
1.2335503899
1.1896471980
1.2253592363
1.1919179983
1.1896453973
1.2331738565
1.2319094774
1.2327293973
1.2039278679
1.2333542997
1.1997379848
1.1912595384
1.2338356853
1.1929290056
1.2275807224
1.1910885114
1.1912920039
1.2319255243
1.2273167199
1.2050501632
1.2264092913
1.2015431995
1.2324137171
1.1894731878
1.1872026593
1.2314926774
1.2319026735
1.1952363144
1.2245607866
1.2314700123
1.1915969711
1.1941312821
1.2269076905
1.1872431650
1.2305618230
1.2323416878
1.1929328476
1.2275439319
1.2088614913
1.2225706510
1.2325995391
1.2063431307
1.1894686520
1.2331780473
1.2347916006
1.1910835376
1.2327309631
1.2264114881
1.2334856784
1.1875963310
1.2319102543
1.2253653698
1.1889603158
1.2327911982
1.2283653548
1.1903659918
1.2327933173
1.2113831954
1.2348026098
1.1889040717
1.2218347254
1.2330707543
1.1873431485
1.1859471321
1.2073747839
1.2334369256
1.2245661172
1.1874347318
1.1859105467
1.1915931514
1.2138028504
1.2332101782
1.2327404443
1.1929725662
1.1875910624
1.1889558813
1.1873411694
1.2348051815
1.2334882995
1.1919345368
1.2351603213
1.2097469426
1.2283671687
1.2326275945
1.2225686109
1.1883054323
1.1872561184
1.2352059361
1.1935014857
1.2162892509
1.2120876650
1.2345263072
1.2330735949
1.1861375827
1.2332131429
1.2337257151
1.2338968976
1.2198236244
1.1857775470
1.2329105031
1.2189804870
1.1945837052
1.2025227587
1.1952524315
1.1991608652
1.2144687642
1.1872504378
1.2160429094
1.1895189704
1.2061269830
1.1961557200
1.1929687444
1.2120249302
1.1881013829
1.1894388421
1.2351647694
1.1937306006
1.1919471864
1.2008619671
1.1975084680
1.2142105738
1.2042613727
1.1959578924
1.2099939521
1.1882998717
1.1907792094
1.1919295464
1.2349432682
1.2166376271
1.2170252717
1.2337294226
1.2346548445
1.2080438992
1.2339003520
1.2317333568
1.2218159499
1.2363868468
1.2363311428
1.2363365925
1.2274553862
1.2186160598
1.2356430195
1.2342399970
1.2333655496
1.2248066733
1.2355878912
1.2367036686
1.2367325535
1.2297302936
1.2115402290
1.2038663176
1.1984663090
1.1904544234
1.2066841384
1.2114690174
1.1961524915
1.2160432578
1.1952500910
1.1919912654
1.2153175735
1.2011133731
1.1971610332
1.1895132725
1.2052961650
1.1980267565
1.2015555024
1.1929980868
1.2094308615
1.2025047238
1.1983586584
1.1894331818
1.2052529146
1.2097264045
1.1944498775
1.2137039025
1.2134745331
1.1997030239
1.1946086238
1.2033305808
1.1975062594
1.1998746113
1.1919415217
1.2335010266
1.2081578578
1.2158310575
1.2213884321
1.2276195788
1.2323078505
1.2257593095
1.2367117450
1.2362815229
1.2378361628
1.2198030480
1.2351046510
1.2377609629
1.2356112997
1.2375597540
1.2073356938
1.2349477325
1.2355179131
1.2302139445
1.2320441654
1.2178512685
1.2246851930
1.2301410419
1.2341300714
1.2228611638
1.2360810940
1.2363419741
1.2370715340
1.2166400831
1.2358991077
1.2381357638
1.2367506681
1.2380303659
1.2346549531
1.2282714579
1.2047266200
1.2005836511
1.1956127872
1.1919856151
1.1995993691
1.2031159371
1.2111950994
1.2142467220
1.2027195097
1.2153199056
1.2000690082
1.2066886088
1.2104908969
1.2061837926
1.1984626606
1.2037446138
1.2005781506
1.1946028600
1.1972649860
1.2016430107
1.2094490483
1.2123988570
1.2016480092
1.2131175539
1.1996996345
1.2056986044
1.2089826104
1.2046175505
1.1969471844
1.2207017039
1.2308668276
1.2275163078
1.2365279442
1.2193359786
1.2384817807
1.2344783529
1.2077514129
1.2367746857
1.2380414037
1.2389405926
1.2391204082
1.2148122737
1.2077925421
1.2326640318
1.2258447038
1.2362662715
1.2377504882
1.2242955848
1.2285912024
1.2303001130
1.2373678380
1.2158344957
1.2390739564
1.2328214627
1.2357879925
1.2374387767
1.2392994899
1.2384895000
1.2168874403
1.2346438477
1.2227150190
1.2375445758
1.2377695558
1.2411954478
1.2270172736
1.2131112648
1.2370891634
1.2042599558
1.2005789768
1.2414407675
1.2410890479
1.2062029406
1.2250919618
1.2093054854
1.2065080204
1.2361795531
1.2397566967
1.2418507581
1.1981370866
1.2103530543
1.2142505421
1.2038514376
1.2050210485
1.2018900109
1.2196540047
1.2180916229
1.2329541777
1.2017585448
1.2315200262
1.2392343306
1.2023646293
1.2408457780
1.2248133210
1.2112694613
1.2360110611
1.2031178400
1.1992914119
1.2413440013
1.2414550159
1.2055926618
1.2285022095
1.2079126150
1.2053796177
1.2372805073
1.2390572173
1.2417265676
1.1972589929
1.2089181435
1.2120910209
1.2031713265
1.2044577948
1.2016434834
1.2172611835
1.2205050886
1.2313522471
1.1997690985
1.2340758190
1.2402965187
1.2024476168
1.2041926382
1.2401535142
1.2139095894
1.2351578529
1.2127187741
1.2398336476
1.2328207569
1.2390402061
1.2044033561
1.2035198209
1.2031142405
1.2391155680
1.2018249806
1.2084095048
1.2199855483
1.2390851881
1.2185737615
1.2063754880
1.2377245518
1.2112728934
1.2379783059
1.2069295676
1.2366818890
1.2076679270
1.2256640108
1.2312250191
1.2054015934
1.2272608841
1.2042927543
1.2397045050
1.2160363095
1.2333657178
1.2136164416
1.2401823011
1.2349436027
1.2389508026
1.2055156513
1.2047517380
1.2020966674
1.2398258914
1.2025148288
1.2084304483
1.2238007732
1.2385067775
1.2148163302
1.2067370971
1.2366109329
1.2106808355
1.2387509143
1.2380674471
1.2222548869
1.2286746711
1.2054072452
1.2302708058
1.2210297732
1.2396590329
1.2374956590
1.2404530185
1.2219897561
1.2250942689
1.2282761788
1.2326912632
1.2048666562
1.2413049324
1.2368749322
1.2397842322
1.2412973186
1.2213666058
1.2062780022
1.2377110731
1.2249547063
1.2180935338
1.2283075737
1.2139351458
1.2271058543
1.2033068965
1.2401027654
1.2418590567
1.2338170647
1.2401201916
1.2377077571
1.2375847767
1.2408000784
1.2004403194
1.2172125992
1.2392368346
1.2091603556
1.2160850742
1.2173604726
1.2423241501
1.2416464195
1.2283091619
1.2337229770
1.2420466041
1.2361818770
1.2410933321
1.2414171379
1.2023592725
1.2131165576
1.2315222685
1.2339145388
1.2417947904
1.2234242965
1.2406453783
1.2388003356
1.2387588111
1.2407997702
1.2196055361
1.2215078357
1.2258871000
1.2349772200
1.2041310634
1.2414508167
1.2380534336
1.2403224741
1.2236964640
1.2055724715
1.2385860932
1.2283860670
1.2152612304
1.2152596722
1.2300278278
1.2031662711
1.2406327262
1.2416202001
1.2358487454
1.2394126753
1.2364473754
1.2403559272
1.1997628393
1.2211513867
1.2305247392
1.2378807948
1.2079434740
1.2139373155
1.2423970836
1.2412541118
1.2302212378
1.2319564832
1.2421785625
1.2340775869
1.2402991045
1.2418457888
1.2013629832
1.2108384151
1.2285038270
1.2352327985
1.2048989916
1.2392928351
1.2404396568
1.2421005062
1.2398350902
1.2070279816
1.2035571765
1.2355988796
1.2025137568
1.2308195992
1.2313434983
1.2253103597
1.2102454055
1.2427674586
1.2036548697
1.2035162520
1.2041893180
1.2400656342
1.2040424283
1.2056062325
1.2419139230
1.2383847949
1.2021601773
1.2365484327
1.2407589439
1.2041924963
1.2028630251
1.2084074579
1.2084086777
1.2067664221
1.2177592413
1.2313504962
1.2425239124
1.2049599842
1.2103047855
1.2023950204
1.2045205617
1.2156685030
1.2294723201
1.2026646687
1.2013939156
1.2097319826
1.2028367507
1.2372504959
1.2046180190
1.2399183644
1.2412591622
1.2416293010
1.2392787326
1.2035924744
1.2336767819
1.2020944431
1.2284387486
1.2216531840
1.2103053715
1.2429468476
1.2030188982
1.2047477164
1.2041397294
1.2398431829
1.2033051285
1.2052058547
1.2424207320
1.2371611614
1.2026611914
1.2381378319
1.2400047858
1.2040879667
1.2031118874
1.2084308830
1.2036652762
1.2060544891
1.2139140465
1.2285659227
1.2427796799
1.2054020043
1.2019824558
1.2055112646
1.2032238816
1.2123112305
1.2322065302
1.2039931903
1.2021633798
1.2079269652
1.2357309358
1.2134277125
1.2036496498
1.2056066259
1.2213676083
1.2023881869
1.2368762055
1.2192146526
1.2123152942
1.2130751810
1.2226230278
1.2019662075
1.2045886519
1.2088409964
1.2418167180
1.2046306007
1.2290789423
1.2014326245
1.2079299223
1.2095369681
1.2290810194
1.2313546172
1.2271073760
1.2025765900
1.2400991612
1.2413578000
1.2210309689
1.2172638534
1.2418206147
1.2061572809
1.2043749810
1.2396601675
1.2390615691
1.2189202153
1.2000524672
1.2210273532
1.2043315527
1.2326928833
1.2332075992
1.2171962723
1.2183195644
1.2408289152
1.2122445594
1.1951540088
1.2414416252
1.2412155845
1.2205066352
1.2380955368
1.2422774739
1.2079118721
1.2002496333
1.2380967095
1.2404566899
1.2048986259
1.2154840149
1.2344148421
1.2044265548
1.2041861358
1.2399339582
1.2141836409
1.2030122972
1.2052058905
1.2191000404
1.2019760859
1.2349786410
1.2171974604
1.2321933023
1.2097354073
1.2127648032
1.2251217221
1.2038269827
1.2047630810
1.2091550933
1.2043906103
1.2003075393
1.2067684921
1.2111766374
1.2239808887
1.2311952378
1.2241355058
1.2006477737
1.2418398855
1.2393469002
1.2420511829
1.2066419729
1.2044051882
1.2384211356
1.2174592049
1.1987099208
1.2045187381
1.2300294442
1.2422745664
1.2190992928
1.2197201167
1.2104891172
1.1980498098
1.2406466966
1.2419860543
1.2061852371
1.1973066988
1.2389950338
1.2414190390
1.2046166384
1.2156885602
1.2358442042
1.2044613923
1.2041350569
1.2388062661
1.2060555875