TITLE = "Data"
variables = X,Y,U,V,Velocity,T
Zone t="data"
I=1001,J=51,F=POINT
0	0	0	0	0	0.6
1	0	0	0	0	1.25872
2	0	0	0	0	0.832659
3	0	0	0	0	1.10824
4	0	0	0	0	0.929993
5	0	0	0	0	1.04528
6	0	0	0	0	0.970713
7	0	0	0	0	1.01894
8	0	0	0	0	0.987747
9	0	0	0	0	1.00792
10	0	0	0	0	0.994874
11	0	0	0	0	1.00332
12	0	0	0	0	0.997856
13	0	0	0	0	1.00139
14	0	0	0	0	0.999103
15	0	0	0	0	1.00058
16	0	0	0	0	0.999625
17	0	0	0	0	1.00024
18	0	0	0	0	0.999843
19	0	0	0	0	1.0001
20	0	0	0	0	0.999934
21	0	0	0	0	1.00004
22	0	0	0	0	0.999973
23	0	0	0	0	1.00002
24	0	0	0	0	0.999989
25	0	0	0	0	1.00001
26	0	0	0	0	0.999995
27	0	0	0	0	1
28	0	0	0	0	0.999998
29	0	0	0	0	1
30	0	0	0	0	0.999999
31	0	0	0	0	1
32	0	0	0	0	1
33	0	0	0	0	1
34	0	0	0	0	1
35	0	0	0	0	1
36	0	0	0	0	1
37	0	0	0	0	1
38	0	0	0	0	1
39	0	0	0	0	1
40	0	0	0	0	1
41	0	0	0	0	1
42	0	0	0	0	1
43	0	0	0	0	1
44	0	0	0	0	1
45	0	0	0	0	1
46	0	0	0	0	1
47	0	0	0	0	1
48	0	0	0	0	1
49	0	0	0	0	1
50	0	0	0	0	1
51	0	0	0	0	1
52	0	0	0	0	1
53	0	0	0	0	1
54	0	0	0	0	1
55	0	0	0	0	1
56	0	0	0	0	1
57	0	0	0	0	1
58	0	0	0	0	1
59	0	0	0	0	1
60	0	0	0	0	1
61	0	0	0	0	1
62	0	0	0	0	1
63	0	0	0	0	1
64	0	0	0	0	1
65	0	0	0	0	1
66	0	0	0	0	1
67	0	0	0	0	1
68	0	0	0	0	1
69	0	0	0	0	1
70	0	0	0	0	1
71	0	0	0	0	1
72	0	0	0	0	1
73	0	0	0	0	1
74	0	0	0	0	1
75	0	0	0	0	1
76	0	0	0	0	1
77	0	0	0	0	1
78	0	0	0	0	1
79	0	0	0	0	1
80	0	0	0	0	1
81	0	0	0	0	1
82	0	0	0	0	1
83	0	0	0	0	1
84	0	0	0	0	1
85	0	0	0	0	1
86	0	0	0	0	1
87	0	0	0	0	1
88	0	0	0	0	1
89	0	0	0	0	1
90	0	0	0	0	1
91	0	0	0	0	1
92	0	0	0	0	1
93	0	0	0	0	1
94	0	0	0	0	1
95	0	0	0	0	1
96	0	0	0	0	1
97	0	0	0	0	1
98	0	0	0	0	1
99	0	0	0	0	1
100	0	0	0	0	1
101	0	0	0	0	1
102	0	0	0	0	1
103	0	0	0	0	1
104	0	0	0	0	1
105	0	0	0	0	1
106	0	0	0	0	1
107	0	0	0	0	1
108	0	0	0	0	1
109	0	0	0	0	1
110	0	0	0	0	1
111	0	0	0	0	1
112	0	0	0	0	1
113	0	0	0	0	1
114	0	0	0	0	1
115	0	0	0	0	1
116	0	0	0	0	1
117	0	0	0	0	1
118	0	0	0	0	1
119	0	0	0	0	1
120	0	0	0	0	1
121	0	0	0	0	1
122	0	0	0	0	1
123	0	0	0	0	1
124	0	0	0	0	1
125	0	0	0	0	1
126	0	0	0	0	1
127	0	0	0	0	1
128	0	0	0	0	1
129	0	0	0	0	1
130	0	0	0	0	1
131	0	0	0	0	1
132	0	0	0	0	1
133	0	0	0	0	1
134	0	0	0	0	1
135	0	0	0	0	1
136	0	0	0	0	1
137	0	0	0	0	1
138	0	0	0	0	1
139	0	0	0	0	1
140	0	0	0	0	1
141	0	0	0	0	1
142	0	0	0	0	1
143	0	0	0	0	1
144	0	0	0	0	1
145	0	0	0	0	1
146	0	0	0	0	1
147	0	0	0	0	1
148	0	0	0	0	1
149	0	0	0	0	1
150	0	0	0	0	1
151	0	0	0	0	1
152	0	0	0	0	1
153	0	0	0	0	1
154	0	0	0	0	1
155	0	0	0	0	1
156	0	0	0	0	1
157	0	0	0	0	1
158	0	0	0	0	1
159	0	0	0	0	1
160	0	0	0	0	1
161	0	0	0	0	1
162	0	0	0	0	1
163	0	0	0	0	1
164	0	0	0	0	1
165	0	0	0	0	1
166	0	0	0	0	1
167	0	0	0	0	1
168	0	0	0	0	1
169	0	0	0	0	1
170	0	0	0	0	1
171	0	0	0	0	1
172	0	0	0	0	1
173	0	0	0	0	1
174	0	0	0	0	1
175	0	0	0	0	1
176	0	0	0	0	1
177	0	0	0	0	1
178	0	0	0	0	1
179	0	0	0	0	1
180	0	0	0	0	1
181	0	0	0	0	1
182	0	0	0	0	1
183	0	0	0	0	1
184	0	0	0	0	1
185	0	0	0	0	1
186	0	0	0	0	1
187	0	0	0	0	1
188	0	0	0	0	1
189	0	0	0	0	1
190	0	0	0	0	1
191	0	0	0	0	1
192	0	0	0	0	1
193	0	0	0	0	1
194	0	0	0	0	1
195	0	0	0	0	1
196	0	0	0	0	1
197	0	0	0	0	1
198	0	0	0	0	1
199	0	0	0	0	1
200	0	0	0	0	1
201	0	0	0	0	1
202	0	0	0	0	1
203	0	0	0	0	1
204	0	0	0	0	1
205	0	0	0	0	1
206	0	0	0	0	1
207	0	0	0	0	1
208	0	0	0	0	1
209	0	0	0	0	1
210	0	0	0	0	1
211	0	0	0	0	1
212	0	0	0	0	1
213	0	0	0	0	1
214	0	0	0	0	1
215	0	0	0	0	1
216	0	0	0	0	1
217	0	0	0	0	1
218	0	0	0	0	1
219	0	0	0	0	1
220	0	0	0	0	1
221	0	0	0	0	1
222	0	0	0	0	1
223	0	0	0	0	1
224	0	0	0	0	1
225	0	0	0	0	1
226	0	0	0	0	1
227	0	0	0	0	1
228	0	0	0	0	1
229	0	0	0	0	1
230	0	0	0	0	1
231	0	0	0	0	1
232	0	0	0	0	1
233	0	0	0	0	1
234	0	0	0	0	1
235	0	0	0	0	1
236	0	0	0	0	1
237	0	0	0	0	1
238	0	0	0	0	1
239	0	0	0	0	1
240	0	0	0	0	1
241	0	0	0	0	1
242	0	0	0	0	1
243	0	0	0	0	1
244	0	0	0	0	1
245	0	0	0	0	1
246	0	0	0	0	1
247	0	0	0	0	1
248	0	0	0	0	1
249	0	0	0	0	1
250	0	0	0	0	1
251	0	0	0	0	1
252	0	0	0	0	1
253	0	0	0	0	1
254	0	0	0	0	1
255	0	0	0	0	1
256	0	0	0	0	1
257	0	0	0	0	1
258	0	0	0	0	1
259	0	0	0	0	1
260	0	0	0	0	1
261	0	0	0	0	1
262	0	0	0	0	1
263	0	0	0	0	1
264	0	0	0	0	1
265	0	0	0	0	1
266	0	0	0	0	1
267	0	0	0	0	1
268	0	0	0	0	1
269	0	0	0	0	1
270	0	0	0	0	1
271	0	0	0	0	1
272	0	0	0	0	1
273	0	0	0	0	1
274	0	0	0	0	1
275	0	0	0	0	1
276	0	0	0	0	1
277	0	0	0	0	1
278	0	0	0	0	1
279	0	0	0	0	1
280	0	0	0	0	1
281	0	0	0	0	1
282	0	0	0	0	1
283	0	0	0	0	1
284	0	0	0	0	1
285	0	0	0	0	1
286	0	0	0	0	1
287	0	0	0	0	1
288	0	0	0	0	1
289	0	0	0	0	1
290	0	0	0	0	1
291	0	0	0	0	1
292	0	0	0	0	1
293	0	0	0	0	1
294	0	0	0	0	1
295	0	0	0	0	1
296	0	0	0	0	1
297	0	0	0	0	1
298	0	0	0	0	1
299	0	0	0	0	1
300	0	0	0	0	1
301	0	0	0	0	1
302	0	0	0	0	1
303	0	0	0	0	1
304	0	0	0	0	1
305	0	0	0	0	1
306	0	0	0	0	1
307	0	0	0	0	1
308	0	0	0	0	1
309	0	0	0	0	1
310	0	0	0	0	1
311	0	0	0	0	1
312	0	0	0	0	1
313	0	0	0	0	1
314	0	0	0	0	1
315	0	0	0	0	1
316	0	0	0	0	1
317	0	0	0	0	1
318	0	0	0	0	1
319	0	0	0	0	1
320	0	0	0	0	1
321	0	0	0	0	1
322	0	0	0	0	1
323	0	0	0	0	1
324	0	0	0	0	1
325	0	0	0	0	1
326	0	0	0	0	1
327	0	0	0	0	1
328	0	0	0	0	1
329	0	0	0	0	1
330	0	0	0	0	1
331	0	0	0	0	1
332	0	0	0	0	1
333	0	0	0	0	1
334	0	0	0	0	1
335	0	0	0	0	1
336	0	0	0	0	1
337	0	0	0	0	1
338	0	0	0	0	1
339	0	0	0	0	1
340	0	0	0	0	1
341	0	0	0	0	1
342	0	0	0	0	1
343	0	0	0	0	1
344	0	0	0	0	1
345	0	0	0	0	1
346	0	0	0	0	1
347	0	0	0	0	1
348	0	0	0	0	1
349	0	0	0	0	1
350	0	0	0	0	1
351	0	0	0	0	1
352	0	0	0	0	1
353	0	0	0	0	1
354	0	0	0	0	1
355	0	0	0	0	1
356	0	0	0	0	1
357	0	0	0	0	1
358	0	0	0	0	1
359	0	0	0	0	1
360	0	0	0	0	1
361	0	0	0	0	1
362	0	0	0	0	1
363	0	0	0	0	1
364	0	0	0	0	1
365	0	0	0	0	1
366	0	0	0	0	1
367	0	0	0	0	1
368	0	0	0	0	1
369	0	0	0	0	1
370	0	0	0	0	1
371	0	0	0	0	1
372	0	0	0	0	1
373	0	0	0	0	1
374	0	0	0	0	1
375	0	0	0	0	1
376	0	0	0	0	1
377	0	0	0	0	1
378	0	0	0	0	1
379	0	0	0	0	1
380	0	0	0	0	1
381	0	0	0	0	1
382	0	0	0	0	1
383	0	0	0	0	1
384	0	0	0	0	1
385	0	0	0	0	1
386	0	0	0	0	1
387	0	0	0	0	1
388	0	0	0	0	1
389	0	0	0	0	1
390	0	0	0	0	1
391	0	0	0	0	1
392	0	0	0	0	1
393	0	0	0	0	1
394	0	0	0	0	1
395	0	0	0	0	1
396	0	0	0	0	1
397	0	0	0	0	1
398	0	0	0	0	1
399	0	0	0	0	1
400	0	0	0	0	1
401	0	0	0	0	1
402	0	0	0	0	1
403	0	0	0	0	1
404	0	0	0	0	1
405	0	0	0	0	1
406	0	0	0	0	1
407	0	0	0	0	1
408	0	0	0	0	1
409	0	0	0	0	1
410	0	0	0	0	1
411	0	0	0	0	1
412	0	0	0	0	1
413	0	0	0	0	1
414	0	0	0	0	1
415	0	0	0	0	1
416	0	0	0	0	1
417	0	0	0	0	1
418	0	0	0	0	1
419	0	0	0	0	1
420	0	0	0	0	1
421	0	0	0	0	1
422	0	0	0	0	1
423	0	0	0	0	1
424	0	0	0	0	1
425	0	0	0	0	1
426	0	0	0	0	1
427	0	0	0	0	1
428	0	0	0	0	1
429	0	0	0	0	1
430	0	0	0	0	1
431	0	0	0	0	1
432	0	0	0	0	1
433	0	0	0	0	1
434	0	0	0	0	1
435	0	0	0	0	1
436	0	0	0	0	1
437	0	0	0	0	1
438	0	0	0	0	1
439	0	0	0	0	1
440	0	0	0	0	1
441	0	0	0	0	1
442	0	0	0	0	1
443	0	0	0	0	1
444	0	0	0	0	1
445	0	0	0	0	1
446	0	0	0	0	1
447	0	0	0	0	1
448	0	0	0	0	1
449	0	0	0	0	1
450	0	0	0	0	1
451	0	0	0	0	1
452	0	0	0	0	1
453	0	0	0	0	1
454	0	0	0	0	1
455	0	0	0	0	1
456	0	0	0	0	1
457	0	0	0	0	1
458	0	0	0	0	1
459	0	0	0	0	1
460	0	0	0	0	1
461	0	0	0	0	1
462	0	0	0	0	1
463	0	0	0	0	1
464	0	0	0	0	1
465	0	0	0	0	1
466	0	0	0	0	1
467	0	0	0	0	1
468	0	0	0	0	1
469	0	0	0	0	1
470	0	0	0	0	1
471	0	0	0	0	1
472	0	0	0	0	1
473	0	0	0	0	1
474	0	0	0	0	1
475	0	0	0	0	1
476	0	0	0	0	1
477	0	0	0	0	1
478	0	0	0	0	1
479	0	0	0	0	1
480	0	0	0	0	1
481	0	0	0	0	1
482	0	0	0	0	1
483	0	0	0	0	1
484	0	0	0	0	1
485	0	0	0	0	1
486	0	0	0	0	1
487	0	0	0	0	1
488	0	0	0	0	1
489	0	0	0	0	1
490	0	0	0	0	1
491	0	0	0	0	1
492	0	0	0	0	1
493	0	0	0	0	1
494	0	0	0	0	1
495	0	0	0	0	1
496	0	0	0	0	1
497	0	0	0	0	1
498	0	0	0	0	1
499	0	0	0	0	1
500	0	0	0	0	1
501	0	0	0	0	1
502	0	0	0	0	1
503	0	0	0	0	1
504	0	0	0	0	1
505	0	0	0	0	1
506	0	0	0	0	1
507	0	0	0	0	1
508	0	0	0	0	1
509	0	0	0	0	1
510	0	0	0	0	1
511	0	0	0	0	1
512	0	0	0	0	1
513	0	0	0	0	1
514	0	0	0	0	1
515	0	0	0	0	1
516	0	0	0	0	1
517	0	0	0	0	1
518	0	0	0	0	1
519	0	0	0	0	1
520	0	0	0	0	1
521	0	0	0	0	1
522	0	0	0	0	1
523	0	0	0	0	1
524	0	0	0	0	1
525	0	0	0	0	1
526	0	0	0	0	1
527	0	0	0	0	1
528	0	0	0	0	1
529	0	0	0	0	1
530	0	0	0	0	1
531	0	0	0	0	1
532	0	0	0	0	1
533	0	0	0	0	1
534	0	0	0	0	1
535	0	0	0	0	1
536	0	0	0	0	1
537	0	0	0	0	1
538	0	0	0	0	1
539	0	0	0	0	1
540	0	0	0	0	1
541	0	0	0	0	1
542	0	0	0	0	1
543	0	0	0	0	1
544	0	0	0	0	1
545	0	0	0	0	1
546	0	0	0	0	1
547	0	0	0	0	1
548	0	0	0	0	1
549	0	0	0	0	1
550	0	0	0	0	1
551	0	0	0	0	1
552	0	0	0	0	1
553	0	0	0	0	1
554	0	0	0	0	1
555	0	0	0	0	1
556	0	0	0	0	1
557	0	0	0	0	1
558	0	0	0	0	1
559	0	0	0	0	1
560	0	0	0	0	1
561	0	0	0	0	1
562	0	0	0	0	1
563	0	0	0	0	1
564	0	0	0	0	1
565	0	0	0	0	1
566	0	0	0	0	1
567	0	0	0	0	1
568	0	0	0	0	1
569	0	0	0	0	1
570	0	0	0	0	1
571	0	0	0	0	1
572	0	0	0	0	1
573	0	0	0	0	1
574	0	0	0	0	1
575	0	0	0	0	1
576	0	0	0	0	1
577	0	0	0	0	1
578	0	0	0	0	1
579	0	0	0	0	1
580	0	0	0	0	1
581	0	0	0	0	1
582	0	0	0	0	1
583	0	0	0	0	1
584	0	0	0	0	1
585	0	0	0	0	1
586	0	0	0	0	1
587	0	0	0	0	1
588	0	0	0	0	1
589	0	0	0	0	1
590	0	0	0	0	1
591	0	0	0	0	1
592	0	0	0	0	1
593	0	0	0	0	1
594	0	0	0	0	1
595	0	0	0	0	1
596	0	0	0	0	1
597	0	0	0	0	1
598	0	0	0	0	1
599	0	0	0	0	1
600	0	0	0	0	1
601	0	0	0	0	1
602	0	0	0	0	1
603	0	0	0	0	1
604	0	0	0	0	1
605	0	0	0	0	1
606	0	0	0	0	1
607	0	0	0	0	1
608	0	0	0	0	1
609	0	0	0	0	1
610	0	0	0	0	1
611	0	0	0	0	1
612	0	0	0	0	1
613	0	0	0	0	1
614	0	0	0	0	1
615	0	0	0	0	1
616	0	0	0	0	1
617	0	0	0	0	1
618	0	0	0	0	1
619	0	0	0	0	1
620	0	0	0	0	1
621	0	0	0	0	1
622	0	0	0	0	1
623	0	0	0	0	1
624	0	0	0	0	1
625	0	0	0	0	1
626	0	0	0	0	1
627	0	0	0	0	1
628	0	0	0	0	1
629	0	0	0	0	1
630	0	0	0	0	1
631	0	0	0	0	1
632	0	0	0	0	1
633	0	0	0	0	1
634	0	0	0	0	1
635	0	0	0	0	1
636	0	0	0	0	1
637	0	0	0	0	1
638	0	0	0	0	1
639	0	0	0	0	1
640	0	0	0	0	1
641	0	0	0	0	1
642	0	0	0	0	1
643	0	0	0	0	1
644	0	0	0	0	1
645	0	0	0	0	1
646	0	0	0	0	1
647	0	0	0	0	1
648	0	0	0	0	1
649	0	0	0	0	1
650	0	0	0	0	1
651	0	0	0	0	1
652	0	0	0	0	1
653	0	0	0	0	1
654	0	0	0	0	1
655	0	0	0	0	1
656	0	0	0	0	1
657	0	0	0	0	1
658	0	0	0	0	1
659	0	0	0	0	1
660	0	0	0	0	1
661	0	0	0	0	1
662	0	0	0	0	1
663	0	0	0	0	1
664	0	0	0	0	1
665	0	0	0	0	1
666	0	0	0	0	1
667	0	0	0	0	1
668	0	0	0	0	1
669	0	0	0	0	1
670	0	0	0	0	1
671	0	0	0	0	1
672	0	0	0	0	1
673	0	0	0	0	1
674	0	0	0	0	1
675	0	0	0	0	1
676	0	0	0	0	1
677	0	0	0	0	1
678	0	0	0	0	1
679	0	0	0	0	1
680	0	0	0	0	1
681	0	0	0	0	1
682	0	0	0	0	1
683	0	0	0	0	1
684	0	0	0	0	1
685	0	0	0	0	1
686	0	0	0	0	1
687	0	0	0	0	1
688	0	0	0	0	1
689	0	0	0	0	1
690	0	0	0	0	1
691	0	0	0	0	1
692	0	0	0	0	1
693	0	0	0	0	1
694	0	0	0	0	1
695	0	0	0	0	1
696	0	0	0	0	1
697	0	0	0	0	1
698	0	0	0	0	1
699	0	0	0	0	1
700	0	0	0	0	1
701	0	0	0	0	1
702	0	0	0	0	1
703	0	0	0	0	1
704	0	0	0	0	1
705	0	0	0	0	1
706	0	0	0	0	1
707	0	0	0	0	1
708	0	0	0	0	1
709	0	0	0	0	1
710	0	0	0	0	1
711	0	0	0	0	1
712	0	0	0	0	1
713	0	0	0	0	1
714	0	0	0	0	1
715	0	0	0	0	1
716	0	0	0	0	1
717	0	0	0	0	1
718	0	0	0	0	1
719	0	0	0	0	1
720	0	0	0	0	1
721	0	0	0	0	1
722	0	0	0	0	1
723	0	0	0	0	1
724	0	0	0	0	1
725	0	0	0	0	1
726	0	0	0	0	1
727	0	0	0	0	1
728	0	0	0	0	1
729	0	0	0	0	1
730	0	0	0	0	1
731	0	0	0	0	1
732	0	0	0	0	1
733	0	0	0	0	1
734	0	0	0	0	1
735	0	0	0	0	1
736	0	0	0	0	1
737	0	0	0	0	1
738	0	0	0	0	1
739	0	0	0	0	1
740	0	0	0	0	1
741	0	0	0	0	1
742	0	0	0	0	1
743	0	0	0	0	1
744	0	0	0	0	1
745	0	0	0	0	1
746	0	0	0	0	1
747	0	0	0	0	1
748	0	0	0	0	1
749	0	0	0	0	1
750	0	0	0	0	1
751	0	0	0	0	1
752	0	0	0	0	1
753	0	0	0	0	1
754	0	0	0	0	1
755	0	0	0	0	1
756	0	0	0	0	1
757	0	0	0	0	1
758	0	0	0	0	1
759	0	0	0	0	1
760	0	0	0	0	1
761	0	0	0	0	1
762	0	0	0	0	1
763	0	0	0	0	1
764	0	0	0	0	1
765	0	0	0	0	1
766	0	0	0	0	1
767	0	0	0	0	1
768	0	0	0	0	1
769	0	0	0	0	1
770	0	0	0	0	1
771	0	0	0	0	1
772	0	0	0	0	1
773	0	0	0	0	1
774	0	0	0	0	1
775	0	0	0	0	1
776	0	0	0	0	1
777	0	0	0	0	1
778	0	0	0	0	1
779	0	0	0	0	1
780	0	0	0	0	1
781	0	0	0	0	1
782	0	0	0	0	1
783	0	0	0	0	1
784	0	0	0	0	1
785	0	0	0	0	1
786	0	0	0	0	1
787	0	0	0	0	1
788	0	0	0	0	1
789	0	0	0	0	1
790	0	0	0	0	1
791	0	0	0	0	1
792	0	0	0	0	1
793	0	0	0	0	1
794	0	0	0	0	1
795	0	0	0	0	1
796	0	0	0	0	1
797	0	0	0	0	1
798	0	0	0	0	1
799	0	0	0	0	1
800	0	0	0	0	1
801	0	0	0	0	1
802	0	0	0	0	1
803	0	0	0	0	1
804	0	0	0	0	1
805	0	0	0	0	1
806	0	0	0	0	1
807	0	0	0	0	1
808	0	0	0	0	1
809	0	0	0	0	1
810	0	0	0	0	1
811	0	0	0	0	1
812	0	0	0	0	1
813	0	0	0	0	1
814	0	0	0	0	1
815	0	0	0	0	1
816	0	0	0	0	1
817	0	0	0	0	1
818	0	0	0	0	1
819	0	0	0	0	1
820	0	0	0	0	1
821	0	0	0	0	1
822	0	0	0	0	1
823	0	0	0	0	1
824	0	0	0	0	1
825	0	0	0	0	1
826	0	0	0	0	1
827	0	0	0	0	1
828	0	0	0	0	1
829	0	0	0	0	1
830	0	0	0	0	1
831	0	0	0	0	1
832	0	0	0	0	1
833	0	0	0	0	1
834	0	0	0	0	1
835	0	0	0	0	1
836	0	0	0	0	1
837	0	0	0	0	1
838	0	0	0	0	1
839	0	0	0	0	1
840	0	0	0	0	1
841	0	0	0	0	1
842	0	0	0	0	1
843	0	0	0	0	1
844	0	0	0	0	1
845	0	0	0	0	1
846	0	0	0	0	1
847	0	0	0	0	1
848	0	0	0	0	1
849	0	0	0	0	1
850	0	0	0	0	1
851	0	0	0	0	1
852	0	0	0	0	1
853	0	0	0	0	1
854	0	0	0	0	1
855	0	0	0	0	1
856	0	0	0	0	1
857	0	0	0	0	1
858	0	0	0	0	1
859	0	0	0	0	1
860	0	0	0	0	1
861	0	0	0	0	1
862	0	0	0	0	1
863	0	0	0	0	1
864	0	0	0	0	1
865	0	0	0	0	1
866	0	0	0	0	1
867	0	0	0	0	1
868	0	0	0	0	1
869	0	0	0	0	1
870	0	0	0	0	1
871	0	0	0	0	1
872	0	0	0	0	1
873	0	0	0	0	1
874	0	0	0	0	1
875	0	0	0	0	1
876	0	0	0	0	1
877	0	0	0	0	1
878	0	0	0	0	1
879	0	0	0	0	1
880	0	0	0	0	1
881	0	0	0	0	1
882	0	0	0	0	1
883	0	0	0	0	1
884	0	0	0	0	1
885	0	0	0	0	1
886	0	0	0	0	1
887	0	0	0	0	1
888	0	0	0	0	1
889	0	0	0	0	1
890	0	0	0	0	1
891	0	0	0	0	1
892	0	0	0	0	1
893	0	0	0	0	1
894	0	0	0	0	1
895	0	0	0	0	1
896	0	0	0	0	1
897	0	0	0	0	1
898	0	0	0	0	1
899	0	0	0	0	1
900	0	0	0	0	1
901	0	0	0	0	1
902	0	0	0	0	1
903	0	0	0	0	1
904	0	0	0	0	1
905	0	0	0	0	1
906	0	0	0	0	1
907	0	0	0	0	1
908	0	0	0	0	1
909	0	0	0	0	1
910	0	0	0	0	1
911	0	0	0	0	1
912	0	0	0	0	1
913	0	0	0	0	1
914	0	0	0	0	1
915	0	0	0	0	1
916	0	0	0	0	1
917	0	0	0	0	1
918	0	0	0	0	1
919	0	0	0	0	1
920	0	0	0	0	1
921	0	0	0	0	1
922	0	0	0	0	1
923	0	0	0	0	1
924	0	0	0	0	1
925	0	0	0	0	1
926	0	0	0	0	1
927	0	0	0	0	1
928	0	0	0	0	1
929	0	0	0	0	1
930	0	0	0	0	1
931	0	0	0	0	1
932	0	0	0	0	1
933	0	0	0	0	1
934	0	0	0	0	1
935	0	0	0	0	1
936	0	0	0	0	1
937	0	0	0	0	1
938	0	0	0	0	1
939	0	0	0	0	1
940	0	0	0	0	1
941	0	0	0	0	1
942	0	0	0	0	1
943	0	0	0	0	1
944	0	0	0	0	1
945	0	0	0	0	1
946	0	0	0	0	1
947	0	0	0	0	1
948	0	0	0	0	1
949	0	0	0	0	1
950	0	0	0	0	1
951	0	0	0	0	1
952	0	0	0	0	1
953	0	0	0	0	1
954	0	0	0	0	1
955	0	0	0	0	1
956	0	0	0	0	1
957	0	0	0	0	1
958	0	0	0	0	1
959	0	0	0	0	1
960	0	0	0	0	1
961	0	0	0	0	1
962	0	0	0	0	1
963	0	0	0	0	1
964	0	0	0	0	1
965	0	0	0	0	1
966	0	0	0	0	1
967	0	0	0	0	1
968	0	0	0	0	1
969	0	0	0	0	1
970	0	0	0	0	1
971	0	0	0	0	1
972	0	0	0	0	1
973	0	0	0	0	1
974	0	0	0	0	1
975	0	0	0	0	1
976	0	0	0	0	1
977	0	0	0	0	1
978	0	0	0	0	1
979	0	0	0	0	1
980	0	0	0	0	1
981	0	0	0	0	1
982	0	0	0	0	1
983	0	0	0	0	1
984	0	0	0	0	1
985	0	0	0	0	1
986	0	0	0	0	1
987	0	0	0	0	1
988	0	0	0	0	1
989	0	0	0	0	1
990	0	0	0	0	1
991	0	0	0	0	1
992	0	0	0	0	1
993	0	0	0	0	1
994	0	0	0	0	1
995	0	0	0	0	1
996	0	0	0	0	1
997	0	0	0	0	1
998	0	0	0	0	1
999	0	0	0	0	1
1000	0	0	0	0	1
0	1	0.12	0	0.12	-0.162898
1	1	0.125504	0.0201572	0.127113	-0.0304289
2	1	0.0998629	0.016414	0.101203	0.208692
3	1	0.0813119	0.0134957	0.0824243	0.26556
4	1	0.070661	0.00566015	0.0708873	0.365801
5	1	0.0639093	0.00237756	0.0639535	0.422166
6	1	0.0583372	0.00256758	0.0583937	0.491303
7	1	0.0531095	0.0023	0.0531593	0.523331
8	1	0.0490073	0.00199671	0.0490479	0.564524
9	1	0.0458873	0.00151995	0.0459125	0.589537
10	1	0.0432309	0.00127137	0.0432496	0.61759
11	1	0.0409022	0.00109825	0.0409169	0.635614
12	1	0.0388834	0.000963638	0.0388953	0.654753
13	1	0.0371418	0.000834901	0.0371512	0.668921
14	1	0.0356198	0.000733293	0.0356273	0.683057
15	1	0.0342702	0.000647796	0.0342763	0.694394
16	1	0.0330661	0.000578226	0.0330712	0.705385
17	1	0.0319882	0.000518031	0.0319923	0.714684
18	1	0.0310183	0.000466597	0.0310218	0.723513
19	1	0.0301415	0.000421764	0.0301445	0.731275
20	1	0.0293453	0.000382844	0.0293478	0.738579
21	1	0.0286195	0.000348904	0.0286217	0.74515
22	1	0.0279557	0.000319179	0.0279575	0.751308
23	1	0.0273466	0.00029276	0.0273482	0.75694
24	1	0.0267862	0.00026934	0.0267875	0.762219
25	1	0.026269	0.000248426	0.0262702	0.7671
26	1	0.0257904	0.00022982	0.0257914	0.771684
27	1	0.0253466	0.000212985	0.0253475	0.77596
28	1	0.024934	0.000197985	0.0249348	0.779986
29	1	0.0245496	0.000184254	0.0245503	0.783765
30	1	0.0241907	0.000171869	0.0241913	0.787333
31	1	0.0238549	0.00016058	0.0238555	0.7907
32	1	0.0235401	0.000150418	0.0235406	0.793891
33	1	0.0232445	0.000141135	0.023245	0.796913
34	1	0.0229665	0.000132591	0.0229669	0.799786
35	1	0.0227045	0.000124768	0.0227048	0.802517
36	1	0.0224572	0.000117629	0.0224575	0.80512
37	1	0.0222235	0.000111018	0.0222237	0.807604
38	1	0.0220019	0.000104906	0.0220022	0.809976
39	1	0.0217919	9.92434e-05	0.0217921	0.812246
40	1	0.0215924	9.41973e-05	0.0215927	0.814421
41	1	0.0214028	8.95119e-05	0.021403	0.816507
42	1	0.0212222	8.50926e-05	0.0212224	0.81851
43	1	0.02105	8.09674e-05	0.0210502	0.820434
44	1	0.0208856	7.71663e-05	0.0208858	0.822287
45	1	0.0207285	7.3678e-05	0.0207286	0.824071
46	1	0.020578	7.03687e-05	0.0205781	0.825792
47	1	0.0204339	6.72247e-05	0.020434	0.827452
48	1	0.0202957	6.44307e-05	0.0202958	0.829056
49	1	0.0201629	6.17052e-05	0.020163	0.830606
50	1	0.0200352	5.9166e-05	0.0200353	0.832106
51	1	0.0199123	5.68801e-05	0.0199124	0.833559
52	1	0.019794	5.46468e-05	0.0197941	0.834967
53	1	0.01968	5.26115e-05	0.0196801	0.836332
54	1	0.0195699	5.06126e-05	0.01957	0.837657
55	1	0.0194637	4.88119e-05	0.0194638	0.838942
56	1	0.0193611	4.7043e-05	0.0193611	0.840193
57	1	0.0192618	4.53546e-05	0.0192619	0.841408
58	1	0.0191656	4.37929e-05	0.0191656	0.84259
59	1	0.0190723	4.23579e-05	0.0190723	0.843739
60	1	0.0189822	4.09064e-05	0.0189822	0.844861
61	1	0.0188946	3.95839e-05	0.0188946	0.845951
62	1	0.0188096	3.82635e-05	0.0188096	0.847016
63	1	0.018727	3.69774e-05	0.018727	0.848052
64	1	0.0186468	3.5876e-05	0.0186468	0.849065
65	1	0.0185688	3.47697e-05	0.0185688	0.850052
66	1	0.018493	3.37117e-05	0.018493	0.851018
67	1	0.0184189	3.26905e-05	0.018419	0.851961
68	1	0.018347	3.18449e-05	0.018347	0.852881
69	1	0.018277	3.09598e-05	0.018277	0.853781
70	1	0.0182087	3.00721e-05	0.0182087	0.854662
71	1	0.0181421	2.91726e-05	0.0181421	0.855524
72	1	0.0180771	2.82798e-05	0.0180771	0.856367
73	1	0.0180136	2.75536e-05	0.0180136	0.857193
74	1	0.0179516	2.68688e-05	0.0179516	0.858
75	1	0.0178911	2.61121e-05	0.0178911	0.858792
76	1	0.017832	2.53784e-05	0.0178321	0.859568
77	1	0.0177743	2.4714e-05	0.0177743	0.860328
78	1	0.0177179	2.41514e-05	0.0177179	0.861075
79	1	0.0176627	2.34751e-05	0.0176627	0.861806
80	1	0.0176085	2.29492e-05	0.0176085	0.862523
81	1	0.0175557	2.24071e-05	0.0175557	0.863227
82	1	0.0175039	2.17975e-05	0.0175039	0.863917
83	1	0.0174532	2.11438e-05	0.0174532	0.864595
84	1	0.0174035	2.0629e-05	0.0174035	0.865261
85	1	0.0173548	2.01118e-05	0.0173548	0.865916
86	1	0.017307	1.96432e-05	0.017307	0.866558
87	1	0.0172602	1.91258e-05	0.0172602	0.86719
88	1	0.0172144	1.86616e-05	0.0172144	0.86781
89	1	0.0171694	1.82506e-05	0.0171694	0.86842
90	1	0.0171253	1.78651e-05	0.0171253	0.86902
91	1	0.017082	1.7498e-05	0.017082	0.869609
92	1	0.0170396	1.70497e-05	0.0170396	0.870189
93	1	0.0169979	1.66244e-05	0.0169979	0.87076
94	1	0.016957	1.62316e-05	0.016957	0.871322
95	1	0.0169168	1.59547e-05	0.0169168	0.871874
96	1	0.0168774	1.55547e-05	0.0168774	0.872418
97	1	0.0168387	1.51407e-05	0.0168387	0.872954
98	1	0.0168006	1.47103e-05	0.0168006	0.873481
99	1	0.0167631	1.43983e-05	0.0167631	0.874
100	1	0.0167264	1.41373e-05	0.0167264	0.874511
101	1	0.0166902	1.38624e-05	0.0166902	0.875015
102	1	0.0166546	1.35711e-05	0.0166546	0.875512
103	1	0.0166196	1.32472e-05	0.0166196	0.876001
104	1	0.0165852	1.29372e-05	0.0165852	0.876483
105	1	0.0165514	1.26782e-05	0.0165514	0.876958
106	1	0.0165183	1.23611e-05	0.0165183	0.877426
107	1	0.0164856	1.21206e-05	0.0164856	0.877887
108	1	0.0164535	1.17801e-05	0.0164535	0.878343
109	1	0.0164218	1.15488e-05	0.0164218	0.878792
110	1	0.0163906	1.13012e-05	0.0163907	0.879235
111	1	0.01636	1.10233e-05	0.01636	0.879673
112	1	0.0163299	1.08174e-05	0.0163299	0.880103
113	1	0.0163002	1.0551e-05	0.0163002	0.880529
114	1	0.016271	1.02776e-05	0.016271	0.880949
115	1	0.0162421	1.00413e-05	0.0162421	0.881363
116	1	0.0162137	9.86084e-06	0.0162137	0.881772
117	1	0.0161857	9.70127e-06	0.0161857	0.882175
118	1	0.0161583	9.55329e-06	0.0161583	0.882574
119	1	0.0161311	9.3471e-06	0.0161311	0.882968
120	1	0.0161044	9.0827e-06	0.0161044	0.883356
121	1	0.0160781	8.83686e-06	0.0160781	0.88374
122	1	0.0160521	8.65848e-06	0.0160521	0.884119
123	1	0.0160264	8.42885e-06	0.0160264	0.884494
124	1	0.0160012	8.31789e-06	0.0160012	0.884864
125	1	0.0159763	8.19062e-06	0.0159763	0.88523
126	1	0.0159517	7.99813e-06	0.0159517	0.885591
127	1	0.0159276	7.82422e-06	0.0159276	0.885949
128	1	0.0159037	7.60138e-06	0.0159037	0.886301
129	1	0.0158803	7.48796e-06	0.0158803	0.88665
130	1	0.0158571	7.32094e-06	0.0158571	0.886994
131	1	0.0158343	7.14923e-06	0.0158343	0.887335
132	1	0.0158117	6.98448e-06	0.0158117	0.887671
133	1	0.0157895	6.75678e-06	0.0157895	0.888004
134	1	0.0157675	6.64788e-06	0.0157675	0.888333
135	1	0.0157459	6.49935e-06	0.0157459	0.888659
136	1	0.0157245	6.36476e-06	0.0157245	0.888982
137	1	0.0157034	6.20219e-06	0.0157034	0.8893
138	1	0.0156826	6.06522e-06	0.0156826	0.889615
139	1	0.015662	5.82099e-06	0.015662	0.889927
140	1	0.0156417	5.64433e-06	0.0156417	0.890236
141	1	0.0156216	5.55623e-06	0.0156216	0.890541
142	1	0.0156017	5.49843e-06	0.0156017	0.890843
143	1	0.0155822	5.4243e-06	0.0155822	0.891142
144	1	0.015563	5.31516e-06	0.015563	0.891437
145	1	0.0155442	5.12437e-06	0.0155442	0.89173
146	1	0.0155254	5.04318e-06	0.0155254	0.89202
147	1	0.0155068	4.87799e-06	0.0155068	0.892307
148	1	0.0154885	4.83176e-06	0.0154885	0.892591
149	1	0.0154704	4.63619e-06	0.0154704	0.892872
150	1	0.0154524	4.61093e-06	0.0154524	0.89315
151	1	0.0154348	4.50398e-06	0.0154348	0.893425
152	1	0.0154175	4.35968e-06	0.0154175	0.893698
153	1	0.0154004	4.25035e-06	0.0154004	0.893968
154	1	0.0153833	4.16902e-06	0.0153833	0.894236
155	1	0.0153666	4.01998e-06	0.0153666	0.894501
156	1	0.0153501	3.90125e-06	0.0153501	0.894763
157	1	0.0153338	3.75916e-06	0.0153338	0.895022
158	1	0.0153176	3.62872e-06	0.0153176	0.895279
159	1	0.0153016	3.51927e-06	0.0153016	0.895534
160	1	0.0152857	3.44951e-06	0.0152857	0.895787
161	1	0.0152701	3.36572e-06	0.0152701	0.896037
162	1	0.0152548	3.32396e-06	0.0152548	0.896285
163	1	0.0152395	3.28219e-06	0.0152395	0.89653
164	1	0.0152244	3.12127e-06	0.0152244	0.896774
165	1	0.0152095	3.01873e-06	0.0152095	0.897015
166	1	0.0151949	2.95823e-06	0.0151949	0.897254
167	1	0.0151804	2.91174e-06	0.0151804	0.89749
168	1	0.015166	2.75774e-06	0.015166	0.897726
169	1	0.0151517	2.58969e-06	0.0151517	0.897959
170	1	0.0151376	2.44732e-06	0.0151376	0.89819
171	1	0.0151237	2.43584e-06	0.0151237	0.898418
172	1	0.01511	2.33551e-06	0.01511	0.898645
173	1	0.0150964	2.28661e-06	0.0150964	0.898869
174	1	0.015083	2.18391e-06	0.015083	0.899092
175	1	0.0150697	2.13265e-06	0.0150697	0.899313
176	1	0.0150565	2.1071e-06	0.0150565	0.899532
177	1	0.0150435	2.10026e-06	0.0150435	0.899749
178	1	0.0150307	2.02558e-06	0.0150307	0.899963
179	1	0.0150181	1.97429e-06	0.0150181	0.900176
180	1	0.0150055	1.84812e-06	0.0150055	0.900388
181	1	0.0149931	1.72896e-06	0.0149931	0.900598
182	1	0.0149808	1.75952e-06	0.0149808	0.900806
183	1	0.0149687	1.76434e-06	0.0149687	0.901013
184	1	0.0149568	1.65215e-06	0.0149568	0.901218
185	1	0.0149451	1.59612e-06	0.0149451	0.901421
186	1	0.0149334	1.45348e-06	0.0149334	0.901622
187	1	0.0149217	1.36231e-06	0.0149217	0.901822
188	1	0.0149102	1.30155e-06	0.0149102	0.90202
189	1	0.014899	1.23376e-06	0.014899	0.902217
190	1	0.0148877	1.09807e-06	0.0148877	0.902412
191	1	0.0148766	9.71717e-07	0.0148766	0.902606
192	1	0.0148656	8.78128e-07	0.0148656	0.902798
193	1	0.0148547	8.59464e-07	0.0148547	0.902988
194	1	0.014844	7.56483e-07	0.014844	0.903177
195	1	0.0148333	7.6357e-07	0.0148333	0.903364
196	1	0.0148228	6.67591e-07	0.0148228	0.903551
197	1	0.0148123	5.76283e-07	0.0148123	0.903735
198	1	0.0148019	5.22444e-07	0.0148019	0.903919
199	1	0.0147918	5.45915e-07	0.0147918	0.9041
200	1	0.0147819	5.27213e-07	0.0147819	0.90428
201	1	0.014772	4.19461e-07	0.014772	0.904459
202	1	0.0147622	3.18722e-07	0.0147622	0.904636
203	1	0.0147524	2.83591e-07	0.0147524	0.904814
204	1	0.0147426	2.20328e-07	0.0147426	0.904988
205	1	0.0147331	2.20345e-07	0.0147331	0.905162
206	1	0.0147238	1.57067e-07	0.0147238	0.905335
207	1	0.0147145	1.03156e-07	0.0147145	0.905506
208	1	0.0147053	6.56501e-08	0.0147053	0.905676
209	1	0.0146962	2.11035e-08	0.0146962	0.905845
210	1	0.014687	3.28302e-08	0.014687	0.906012
211	1	0.0146781	0	0.0146781	0.906179
212	1	0.0146692	-7.97429e-08	0.0146692	0.906345
213	1	0.0146605	-1.87645e-07	0.0146605	0.906509
214	1	0.0146517	-3.11984e-07	0.0146517	0.906671
215	1	0.0146432	-3.51889e-07	0.0146432	0.906833
216	1	0.0146347	-3.58954e-07	0.0146347	0.906994
217	1	0.0146263	-3.77752e-07	0.0146263	0.907153
218	1	0.0146181	-3.70742e-07	0.0146181	0.907311
219	1	0.0146099	-3.96584e-07	0.0146099	0.907467
220	1	0.0146018	-4.48245e-07	0.0146018	0.907623
221	1	0.0145937	-4.60014e-07	0.0145937	0.907779
222	1	0.0145858	-5.0934e-07	0.0145858	0.907933
223	1	0.014578	-5.63369e-07	0.014578	0.908086
224	1	0.0145702	-6.714e-07	0.0145702	0.908237
225	1	0.0145624	-7.46578e-07	0.0145624	0.908389
226	1	0.0145548	-8.45247e-07	0.0145548	0.908539
227	1	0.0145473	-8.66445e-07	0.0145473	0.908687
228	1	0.0145397	-8.45377e-07	0.0145397	0.908835
229	1	0.0145324	-9.51121e-07	0.0145324	0.908982
230	1	0.014525	-9.62936e-07	0.014525	0.909127
231	1	0.0145177	-9.91195e-07	0.0145177	0.909273
232	1	0.0145106	-9.88921e-07	0.0145106	0.909416
233	1	0.0145035	-9.84298e-07	0.0145035	0.909559
234	1	0.0144964	-1.08304e-06	0.0144964	0.909701
235	1	0.0144894	-1.10192e-06	0.0144894	0.909843
236	1	0.0144825	-1.17954e-06	0.0144825	0.909983
237	1	0.0144757	-1.18668e-06	0.0144757	0.910122
238	1	0.0144689	-1.18207e-06	0.0144689	0.910261
239	1	0.0144622	-1.16806e-06	0.0144622	0.910398
240	1	0.0144557	-1.14934e-06	0.0144557	0.910535
241	1	0.0144493	-1.2223e-06	0.0144493	0.910671
242	1	0.0144429	-1.27881e-06	0.0144429	0.910805
243	1	0.0144365	-1.28125e-06	0.0144365	0.910939
244	1	0.0144302	-1.30956e-06	0.0144302	0.911073
245	1	0.014424	-1.26499e-06	0.014424	0.911205
246	1	0.0144178	-1.29095e-06	0.0144178	0.911337
247	1	0.0144117	-1.39216e-06	0.0144117	0.911467
248	1	0.0144056	-1.45106e-06	0.0144056	0.911597
249	1	0.0143996	-1.48645e-06	0.0143996	0.911726
250	1	0.0143937	-1.50538e-06	0.0143937	0.911855
251	1	0.014388	-1.54313e-06	0.014388	0.911982
252	1	0.0143821	-1.63499e-06	0.0143821	0.912109
253	1	0.0143763	-1.66805e-06	0.0143763	0.912235
254	1	0.0143707	-1.74817e-06	0.0143707	0.912361
255	1	0.0143651	-1.85183e-06	0.0143651	0.912485
256	1	0.0143595	-1.90844e-06	0.0143595	0.912608
257	1	0.0143539	-1.91564e-06	0.0143539	0.912732
258	1	0.0143484	-1.84753e-06	0.0143484	0.912854
259	1	0.014343	-1.83825e-06	0.014343	0.912976
260	1	0.0143377	-1.86193e-06	0.0143377	0.913097
261	1	0.0143324	-1.88325e-06	0.0143324	0.913217
262	1	0.0143272	-1.9187e-06	0.0143272	0.913337
263	1	0.0143221	-1.96357e-06	0.0143221	0.913456
264	1	0.0143169	-1.98726e-06	0.0143169	0.913574
265	1	0.0143119	-1.98976e-06	0.0143119	0.913692
266	1	0.0143068	-2.06291e-06	0.0143068	0.913808
267	1	0.0143019	-2.03951e-06	0.0143019	0.913924
268	1	0.0142971	-2.05379e-06	0.0142971	0.914039
269	1	0.0142922	-2.05394e-06	0.0142922	0.914154
270	1	0.0142873	-2.18365e-06	0.0142873	0.914268
271	1	0.0142825	-2.21208e-06	0.0142825	0.914381
272	1	0.0142778	-2.21459e-06	0.0142778	0.914494
273	1	0.0142732	-2.18648e-06	0.0142732	0.914607
274	1	0.0142685	-2.26911e-06	0.0142685	0.914719
275	1	0.0142641	-2.34232e-06	0.0142641	0.91483
276	1	0.0142596	-2.3967e-06	0.0142596	0.91494
277	1	0.0142551	-2.44636e-06	0.0142551	0.91505
278	1	0.0142506	-2.40411e-06	0.0142506	0.915159
279	1	0.0142463	-2.41372e-06	0.0142463	0.915268
280	1	0.0142419	-2.40918e-06	0.0142419	0.915376
281	1	0.0142376	-2.4565e-06	0.0142376	0.915483
282	1	0.0142333	-2.44725e-06	0.0142333	0.91559
283	1	0.0142291	-2.41913e-06	0.0142291	0.915695
284	1	0.014225	-2.42873e-06	0.014225	0.915801
285	1	0.0142208	-2.53031e-06	0.0142208	0.915907
286	1	0.0142167	-2.49983e-06	0.0142167	0.916011
287	1	0.0142127	-2.51652e-06	0.0142127	0.916114
288	1	0.0142088	-2.58275e-06	0.0142088	0.916218
289	1	0.0142049	-2.61831e-06	0.0142049	0.916321
290	1	0.014201	-2.62322e-06	0.014201	0.916423
291	1	0.0141971	-2.66351e-06	0.0141971	0.916525
292	1	0.0141933	-2.69437e-06	0.0141933	0.916626
293	1	0.0141896	-2.7394e-06	0.0141896	0.916727
294	1	0.0141858	-2.79151e-06	0.0141858	0.916827
295	1	0.0141822	-2.8507e-06	0.0141822	0.916927
296	1	0.0141784	-2.80134e-06	0.0141784	0.917027
297	1	0.0141748	-2.87235e-06	0.0141748	0.917126
298	1	0.0141713	-2.90796e-06	0.0141713	0.917224
299	1	0.0141677	-2.91997e-06	0.0141677	0.917321
300	1	0.0141642	-2.91545e-06	0.0141642	0.917418
301	1	0.0141608	-2.94635e-06	0.0141608	0.917515
302	1	0.0141575	-2.94892e-06	0.0141575	0.91761
303	1	0.014154	-2.93969e-06	0.014154	0.917706
304	1	0.0141507	-2.95643e-06	0.0141507	0.917801
305	1	0.0141473	-2.99442e-06	0.0141473	0.917896
306	1	0.014144	-3.03006e-06	0.014144	0.917991
307	1	0.0141408	-3.06098e-06	0.0141408	0.918085
308	1	0.0141376	-3.04702e-06	0.0141376	0.918178
309	1	0.0141344	-3.09212e-06	0.0141344	0.918271
310	1	0.0141312	-3.09942e-06	0.0141312	0.918363
311	1	0.014128	-3.15398e-06	0.014128	0.918456
312	1	0.014125	-3.14002e-06	0.014125	0.918547